ITEM: TIMESTEP
0
ITEM: NUMBER OF ATOMS
23
ITEM: BOX BOUNDS pp pp pp
0.0000000000000000e+00 2.0000000000000000e+01
0.0000000000000000e+00 2.0000000000000000e+01
-1.0000000000000001e-01 1.0000000000000001e-01
ITEM: ATOMS id type x y vx vy 
1 1 0 0 0.749012 0.331441 
3 1 4.80562 0 -0.206764 -1.18126 
5 1 9.61125 0 0.076248 0.831764 
7 1 14.4169 0 -0.785565 0.0746519 
9 1 19.2225 0 -0.251547 -1.28436 
2 1 2.40281 4.16179 -0.810573 0.697962 
4 1 7.20843 4.16179 0.288759 0.99129 
6 1 12.0141 4.16179 1.57057 0.578176 
8 1 16.8197 4.16179 -0.377915 -1.3736 
10 1 0 8.32358 0.561896 -0.316061 
12 1 4.80562 8.32358 -1.31778 -0.177032 
14 1 9.61125 8.32358 -0.419982 -0.483966 
16 1 14.4169 8.32358 0.269169 0.2062 
18 1 19.2225 8.32358 1.0342 0.580422 
11 1 2.40281 12.4854 -0.873502 1.73892 
13 1 7.20843 12.4854 -1.03822 1.17066 
15 1 12.0141 12.4854 1.3079 -0.842517 
17 1 16.8197 12.4854 -1.31822 -1.25197 
19 1 0 16.6472 -0.91203 1.52754 
20 1 4.80562 16.6472 0.880214 -1.23538 
21 1 9.61125 16.6472 0.0198202 -0.462582 
22 1 14.4169 16.6472 -0.0635219 -1.2913 
23 1 19.2225 16.6472 1.61785 1.17101 
ITEM: TIMESTEP
10
ITEM: NUMBER OF ATOMS
23
ITEM: BOX BOUNDS pp pp pp
0.0000000000000000e+00 2.0000000000000000e+01
0.0000000000000000e+00 2.0000000000000000e+01
-1.0000000000000001e-01 1.0000000000000001e-01
ITEM: ATOMS id type x y vx vy 
1 1 0.313963 0.0161323 5.29301 0.254317 
3 1 4.79687 -0.0499879 -0.134251 -0.766988 
5 1 9.61447 0.0351982 0.0495076 0.540062 
7 1 14.3836 0.00315908 -0.510065 0.0484713 
9 1 18.9296 -0.0564574 -4.97001 -0.873045 
2 1 2.36851 4.19133 -0.526303 0.453185 
4 1 7.22065 4.20374 0.18749 0.643642 
6 1 12.0805 4.18626 1.01977 0.375408 
8 1 16.8037 4.10366 -0.245379 -0.891873 
10 1 0.331504 8.30882 5.65344 -0.23125 
12 1 4.74986 8.31609 -0.855632 -0.114947 
14 1 9.59347 8.3031 -0.272693 -0.314238 
16 1 14.4283 8.33231 0.174771 0.133885 
18 1 18.9585 8.34953 -4.6171 0.402899 
11 1 2.36585 12.559 -0.567163 1.12908 
13 1 7.1645 12.5349 -0.674116 0.760107 
15 1 12.0694 12.4497 0.849213 -0.547044 
17 1 16.7639 12.4324 -0.85592 -0.812904 
19 1 0.309758 16.7125 5.46045 1.00491 
20 1 4.84287 16.5949 0.571521 -0.802131 
21 1 9.61208 16.6276 0.0128692 -0.300353 
22 1 14.4142 16.5925 -0.0412446 -0.83844 
23 1 18.9426 16.696 -5.00217 0.747251 
ITEM: TIMESTEP
20
ITEM: NUMBER OF ATOMS
23
ITEM: BOX BOUNDS pp pp pp
0.0000000000000000e+00 2.0000000000000000e+01
0.0000000000000000e+00 2.0000000000000000e+01
-1.0000000000000001e-01 1.0000000000000001e-01
ITEM: ATOMS id type x y vx vy 
1 1 0.518944 0.0259714 3.14127 0.150591 
3 1 4.79165 19.9201 -0.080476 -0.459766 
5 1 9.6164 0.0562272 0.029677 0.323737 
7 1 14.3638 0.00504646 -0.305755 0.0290558 
9 1 18.7372 19.9096 -2.94765 -0.521483 
2 1 2.34802 4.20897 -0.315489 0.271659 
4 1 7.22795 4.2288 0.11239 0.385827 
6 1 12.1202 4.20088 0.611293 0.225036 
8 1 16.7941 4.06894 -0.147091 -0.534628 
10 1 0.550463 8.29986 3.35569 -0.137516 
12 1 4.71654 8.31162 -0.512903 -0.068904 
14 1 9.58285 8.29087 -0.163464 -0.188368 
16 1 14.4351 8.33752 0.104765 0.0802566 
18 1 18.7799 8.36518 -2.73446 0.24041 
11 1 2.34376 12.6029 -0.339982 0.676818 
13 1 7.13825 12.5645 -0.404095 0.455641 
15 1 12.1025 12.4284 0.509055 -0.327922 
17 1 16.7306 12.4007 -0.513076 -0.48729 
19 1 0.521185 16.7516 3.23961 0.601933 
20 1 4.86513 16.5637 0.342594 -0.480832 
21 1 9.61259 16.6159 0.00771436 -0.180045 
22 1 14.4126 16.5599 -0.0247238 -0.502598 
23 1 18.749 16.7251 -2.96489 0.448388 
ITEM: TIMESTEP
30
ITEM: NUMBER OF ATOMS
23
ITEM: BOX BOUNDS pp pp pp
0.0000000000000000e+00 2.0000000000000000e+01
0.0000000000000000e+00 2.0000000000000000e+01
-1.0000000000000001e-01 1.0000000000000001e-01
ITEM: ATOMS id type x y vx vy 
1 1 0.646338 0.0320726 2.0732 0.0991857 
3 1 4.78837 19.9015 -0.0533696 -0.304905 
5 1 9.61761 0.0693884 0.019681 0.214694 
7 1 14.3513 0.00622769 -0.202769 0.019269 
9 1 18.6177 19.8884 -1.94479 -0.345152 
2 1 2.33519 4.22002 -0.209224 0.180157 
4 1 7.23252 4.24449 0.0745339 0.25587 
6 1 12.1451 4.21002 0.405394 0.149238 
8 1 16.7882 4.0472 -0.0975468 -0.354551 
10 1 0.686557 8.29428 2.21486 -0.0907913 
12 1 4.69569 8.30881 -0.340144 -0.0456953 
14 1 9.57621 8.28321 -0.108405 -0.124921 
16 1 14.4393 8.34078 0.0694776 0.0532241 
18 1 18.6691 8.37494 -1.80288 0.159028 
11 1 2.32994 12.6304 -0.225467 0.448848 
13 1 7.12182 12.583 -0.267985 0.302169 
15 1 12.1232 12.4151 0.337592 -0.217469 
17 1 16.7097 12.3809 -0.340258 -0.323158 
19 1 0.652562 16.7761 2.13797 0.399024 
20 1 4.87905 16.5441 0.2272 -0.318875 
21 1 9.6129 16.6086 0.00511596 -0.119401 
22 1 14.4116 16.5394 -0.0163962 -0.33331 
23 1 18.6288 16.7434 -1.95578 0.297522 
ITEM: TIMESTEP
40
ITEM: NUMBER OF ATOMS
23
ITEM: BOX BOUNDS pp pp pp
0.0000000000000000e+00 2.0000000000000000e+01
0.0000000000000000e+00 2.0000000000000000e+01
-1.0000000000000001e-01 1.0000000000000001e-01
ITEM: ATOMS id type x y vx vy 
1 1 0.734232 0.036274 1.49666 0.0714762 
3 1 4.78611 19.8885 -0.0386609 -0.220873 
5 1 9.61844 0.0785059 0.0142569 0.155524 
7 1 14.3427 0.007046 -0.146886 0.0139585 
9 1 18.5352 19.8738 -1.40364 -0.249654 
2 1 2.32631 4.22767 -0.151562 0.130506 
4 1 7.23569 4.25535 0.0539924 0.185353 
6 1 12.1623 4.21636 0.293667 0.108108 
8 1 16.784 4.03214 -0.0706629 -0.256837 
10 1 0.780459 8.29043 1.59901 -0.0655472 
12 1 4.68124 8.30687 -0.2464 -0.0331017 
14 1 9.57161 8.2779 -0.0785288 -0.0904926 
16 1 14.4423 8.34305 0.0503296 0.0385555 
18 1 18.5927 8.38169 -1.30057 0.114978 
11 1 2.32037 12.6495 -0.163328 0.325146 
13 1 7.11044 12.5959 -0.194128 0.218891 
15 1 12.1375 12.4059 0.244552 -0.157535 
17 1 16.6953 12.3672 -0.246483 -0.234096 
19 1 0.743202 16.793 1.54342 0.288965 
20 1 4.8887 16.5306 0.164583 -0.230993 
21 1 9.61312 16.6035 0.003706 -0.086494 
22 1 14.4109 16.5253 -0.0118774 -0.241449 
23 1 18.5459 16.756 -1.41145 0.215613 
ITEM: TIMESTEP
50
ITEM: NUMBER OF ATOMS
23
ITEM: BOX BOUNDS pp pp pp
0.0000000000000000e+00 2.0000000000000000e+01
0.0000000000000000e+00 2.0000000000000000e+01
-1.0000000000000001e-01 1.0000000000000001e-01
ITEM: ATOMS id type x y vx vy 
1 1 0.799854 0.0394055 1.15612 0.0551222 
3 1 4.78441 19.8788 -0.0299509 -0.171112 
5 1 9.61907 0.0853347 0.0110449 0.120486 
7 1 14.3363 0.0076589 -0.113793 0.0108137 
9 1 18.4737 19.8628 -1.08406 -0.193158 
2 1 2.31965 4.2334 -0.117416 0.101104 
4 1 7.23806 4.26349 0.0418282 0.143594 
6 1 12.1752 4.22111 0.227506 0.0837519 
8 1 16.7809 4.02087 -0.054743 -0.198973 
10 1 0.850571 8.28755 1.23525 -0.050631 
12 1 4.67043 8.30542 -0.190888 -0.0256441 
14 1 9.56816 8.27393 -0.0608367 -0.0701051 
16 1 14.4445 8.34474 0.0389906 0.0298692 
18 1 18.5357 8.38673 -1.00404 0.0889253 
11 1 2.31319 12.6638 -0.126532 0.251892 
13 1 7.10192 12.6055 -0.150392 0.169577 
15 1 12.1482 12.3989 0.189456 -0.122043 
17 1 16.6844 12.3569 -0.190952 -0.181355 
19 1 0.810875 16.8057 1.19227 0.223804 
20 1 4.89593 16.5204 0.127504 -0.178952 
21 1 9.61328 16.5997 0.00287106 -0.0670074 
22 1 14.4104 16.5147 -0.0092015 -0.187052 
23 1 18.484 16.7655 -1.09003 0.167095 
ITEM: TIMESTEP
60
ITEM: NUMBER OF ATOMS
23
ITEM: BOX BOUNDS pp pp pp
0.0000000000000000e+00 2.0000000000000000e+01
0.0000000000000000e+00 2.0000000000000000e+01
-1.0000000000000001e-01 1.0000000000000001e-01
ITEM: ATOMS id type x y vx vy 
1 1 0.851936 0.0418867 0.943162 0.0448976 
3 1 4.78306 19.8711 -0.0244973 -0.139955 
5 1 9.61957 0.0907693 0.00903381 0.0985469 
7 1 14.3311 0.00814666 -0.0930733 0.00884471 
9 1 18.4248 19.8541 -0.884223 -0.157799 
2 1 2.31435 4.23796 -0.0960362 0.0826941 
4 1 7.23995 4.26997 0.0342119 0.117447 
6 1 12.1855 4.22489 0.18608 0.0685019 
8 1 16.7784 4.01189 -0.0447751 -0.162743 
10 1 0.906219 8.28527 1.00776 -0.0413006 
12 1 4.66182 8.30426 -0.15613 -0.0209747 
14 1 9.56541 8.27077 -0.0497593 -0.05734 
16 1 14.4462 8.34609 0.031891 0.0244305 
18 1 18.4905 8.39074 -0.818651 0.0726221 
11 1 2.30749 12.6751 -0.103492 0.206026 
13 1 7.09513 12.6131 -0.123008 0.138699 
15 1 12.1568 12.3934 0.154959 -0.0998209 
17 1 16.6758 12.3487 -0.156182 -0.148333 
19 1 0.864586 16.8158 0.972688 0.183009 
20 1 4.90168 16.5124 0.104287 -0.146367 
21 1 9.61341 16.5967 0.00234829 -0.0548064 
22 1 14.4099 16.5062 -0.00752604 -0.152993 
23 1 18.4349 16.773 -0.889063 0.136713 
ITEM: TIMESTEP
70
ITEM: NUMBER OF ATOMS
23
ITEM: BOX BOUNDS pp pp pp
0.0000000000000000e+00 2.0000000000000000e+01
0.0000000000000000e+00 2.0000000000000000e+01
-1.0000000000000001e-01 1.0000000000000001e-01
ITEM: ATOMS id type x y vx vy 
1 1 0.895432 0.0439558 0.807128 0.0383778 
3 1 4.78193 19.8646 -0.0210019 -0.119985 
5 1 9.61998 0.095319 0.00774482 0.0844857 
7 1 14.3268 0.008555 -0.0797931 0.0075827 
9 1 18.3841 19.8468 -0.756598 -0.13517 
2 1 2.30992 4.24178 -0.0823332 0.0708948 
4 1 7.24153 4.27539 0.0293304 0.100689 
6 1 12.194 4.22805 0.159529 0.0587277 
8 1 16.7764 4.00438 -0.0383863 -0.139522 
10 1 0.952691 8.28337 0.86204 -0.0353231 
12 1 4.65461 8.3033 -0.133852 -0.0179819 
14 1 9.56312 8.26812 -0.0426593 -0.0491584 
16 1 14.4477 8.34721 0.0273406 0.0209446 
18 1 18.4527 8.39409 -0.699919 0.0621754 
11 1 2.30271 12.6847 -0.0887252 0.176629 
13 1 7.08946 12.6195 -0.105457 0.118909 
15 1 12.1639 12.3888 0.132848 -0.0855779 
17 1 16.6686 12.3419 -0.133898 -0.127168 
19 1 0.909442 16.8242 0.832231 0.156867 
20 1 4.90649 16.5056 0.0894069 -0.125483 
21 1 9.61352 16.5942 0.00201322 -0.0469863 
22 1 14.4096 16.4992 -0.00645218 -0.131163 
23 1 18.3939 16.7793 -0.760538 0.117235 
ITEM: TIMESTEP
80
ITEM: NUMBER OF ATOMS
23
ITEM: BOX BOUNDS pp pp pp
0.0000000000000000e+00 2.0000000000000000e+01
0.0000000000000000e+00 2.0000000000000000e+01
-1.0000000000000001e-01 1.0000000000000001e-01
ITEM: ATOMS id type x y vx vy 
1 1 0.933502 0.045766 0.722688 0.0343628 
3 1 4.78094 19.859 -0.0188047 -0.107433 
5 1 9.62035 0.0993041 0.00693457 0.075647 
7 1 14.3231 0.00891266 -0.0714453 0.00678942 
9 1 18.3484 19.8405 -0.677445 -0.121029 
2 1 2.30604 4.24512 -0.0737197 0.063478 
4 1 7.24291 4.28014 0.0262619 0.0901555 
6 1 12.2016 4.23082 0.14284 0.0525837 
8 1 16.7746 3.9978 -0.0343705 -0.124926 
10 1 0.993351 8.2817 0.771856 -0.0316277 
12 1 4.64829 8.30245 -0.119849 -0.0161007 
14 1 9.5611 8.2658 -0.0381964 -0.0440156 
16 1 14.449 8.3482 0.0244803 0.0187534 
18 1 18.4197 8.39702 -0.626695 0.0556708 
11 1 2.29852 12.693 -0.079443 0.158151 
13 1 7.08448 12.6251 -0.0944241 0.106469 
15 1 12.1702 12.3848 0.11895 -0.076625 
17 1 16.6623 12.3359 -0.119889 -0.113864 
19 1 0.948697 16.8316 0.745165 0.140456 
20 1 4.91071 16.4997 0.0800534 -0.112355 
21 1 9.61361 16.5919 0.0018026 -0.0420707 
22 1 14.4093 16.493 -0.00577717 -0.117441 
23 1 18.3581 16.7849 -0.680972 0.104971 
ITEM: TIMESTEP
90
ITEM: NUMBER OF ATOMS
23
ITEM: BOX BOUNDS pp pp pp
0.0000000000000000e+00 2.0000000000000000e+01
0.0000000000000000e+00 2.0000000000000000e+01
-1.0000000000000001e-01 1.0000000000000001e-01
ITEM: ATOMS id type x y vx vy 
1 1 0.968308 0.047421 0.674995 0.0320951 
3 1 4.78003 19.8538 -0.0175637 -0.100343 
5 1 9.62068 0.102947 0.00647694 0.0706548 
7 1 14.3196 0.00923965 -0.0667304 0.00634136 
9 1 18.3158 19.8346 -0.632738 -0.113042 
2 1 2.30249 4.24818 -0.0688547 0.0592888 
4 1 7.24417 4.28448 0.0245288 0.0842058 
6 1 12.2084 4.23335 0.133413 0.0491135 
8 1 16.7729 3.99178 -0.0321022 -0.116681 
10 1 1.03052 8.28018 0.720918 -0.0295404 
12 1 4.64252 8.30167 -0.11194 -0.0150381 
14 1 9.55926 8.26368 -0.0356757 -0.0411109 
16 1 14.4502 8.3491 0.0228648 0.0175158 
18 1 18.3895 8.39971 -0.585337 0.0519968 
11 1 2.2947 12.7006 -0.0742002 0.147714 
13 1 7.07993 12.6303 -0.0881927 0.0994426 
15 1 12.1759 12.3811 0.1111 -0.0715682 
17 1 16.6565 12.3304 -0.111978 -0.10635 
19 1 0.984585 16.8384 0.695988 0.131187 
20 1 4.91457 16.4943 0.0747704 -0.10494 
21 1 9.6137 16.5899 0.00168364 -0.0392943 
22 1 14.409 16.4873 -0.00539591 -0.109691 
23 1 18.3253 16.7899 -0.636032 0.0980432 
ITEM: TIMESTEP
100
ITEM: NUMBER OF ATOMS
23
ITEM: BOX BOUNDS pp pp pp
0.0000000000000000e+00 2.0000000000000000e+01
0.0000000000000000e+00 2.0000000000000000e+01
-1.0000000000000001e-01 1.0000000000000001e-01
ITEM: ATOMS id type x y vx vy 
1 1 1.00151 0.0489995 0.657828 0.0312788 
3 1 4.77917 19.8489 -0.017117 -0.0977908 
5 1 9.621 0.106422 0.00631221 0.0688579 
7 1 14.3164 0.00955154 -0.0650332 0.00618008 
9 1 18.2846 19.8291 -0.616645 -0.110167 
2 1 2.2991 4.25109 -0.0671035 0.057781 
4 1 7.24538 4.28862 0.023905 0.0820643 
6 1 12.215 4.23577 0.13002 0.0478644 
8 1 16.7713 3.98604 -0.0312858 -0.113714 
10 1 1.06598 8.27873 0.702583 -0.0287891 
12 1 4.63702 8.30093 -0.109093 -0.0146557 
14 1 9.55751 8.26166 -0.0347684 -0.0400653 
16 1 14.4513 8.34997 0.0222833 0.0170703 
18 1 18.3607 8.40226 -0.57045 0.0506744 
11 1 2.29105 12.7079 -0.0723131 0.143957 
13 1 7.0756 12.6352 -0.0859497 0.0969135 
15 1 12.1814 12.3776 0.108275 -0.069748 
17 1 16.651 12.3252 -0.10913 -0.103645 
19 1 1.01882 16.8449 0.678288 0.12785 
20 1 4.91824 16.4891 0.0728688 -0.102272 
21 1 9.61378 16.588 0.00164082 -0.0382949 
22 1 14.4087 16.4819 -0.00525868 -0.106901 
23 1 18.294 16.7947 -0.619856 0.0955497 
ITEM: TIMESTEP
110
ITEM: NUMBER OF ATOMS
23
ITEM: BOX BOUNDS pp pp pp
0.0000000000000000e+00 2.0000000000000000e+01
0.0000000000000000e+00 2.0000000000000000e+01
-1.0000000000000001e-01 1.0000000000000001e-01
ITEM: ATOMS id type x y vx vy 
1 1 1.03457 0.0505714 0.669336 0.031826 
3 1 4.77831 19.8439 -0.0174165 -0.0995016 
5 1 9.62132 0.109883 0.00642264 0.0700625 
7 1 14.3131 0.00986212 -0.0661709 0.00628819 
9 1 18.2536 19.8235 -0.627433 -0.112094 
2 1 2.29573 4.254 -0.0682774 0.0587918 
4 1 7.24658 4.29275 0.0243232 0.0834999 
6 1 12.2215 4.23817 0.132295 0.0487018 
8 1 16.7698 3.98033 -0.0318331 -0.115703 
10 1 1.10129 8.27728 0.714874 -0.0292928 
12 1 4.63153 8.3002 -0.111001 -0.0149121 
14 1 9.55576 8.25965 -0.0353766 -0.0407662 
16 1 14.4524 8.35082 0.0226731 0.017369 
18 1 18.3321 8.40481 -0.58043 0.0515609 
11 1 2.28741 12.7151 -0.0735782 0.146476 
13 1 7.07128 12.64 -0.0874533 0.0986089 
15 1 12.1868 12.3741 0.110169 -0.0709682 
17 1 16.6455 12.32 -0.111039 -0.105458 
19 1 1.0529 16.8513 0.690154 0.130087 
20 1 4.92191 16.484 0.0741435 -0.104061 
21 1 9.61386 16.5861 0.00166953 -0.0389649 
22 1 14.4085 16.4766 -0.00535068 -0.108771 
23 1 18.2628 16.7995 -0.6307 0.0972212 
ITEM: TIMESTEP
120
ITEM: NUMBER OF ATOMS
23
ITEM: BOX BOUNDS pp pp pp
0.0000000000000000e+00 2.0000000000000000e+01
0.0000000000000000e+00 2.0000000000000000e+01
-1.0000000000000001e-01 1.0000000000000001e-01
ITEM: ATOMS id type x y vx vy 
1 1 1.06893 0.0522055 0.710475 0.0337821 
3 1 4.77741 19.8388 -0.0184869 -0.105617 
5 1 9.62165 0.11348 0.00681738 0.0743686 
7 1 14.3097 0.010185 -0.0702379 0.00667468 
9 1 18.2214 19.8178 -0.665996 -0.118983 
2 1 2.29222 4.25702 -0.0724738 0.0624052 
4 1 7.24783 4.29704 0.0258181 0.0886319 
6 1 12.2283 4.24067 0.140426 0.0516951 
8 1 16.7681 3.97439 -0.0337896 -0.122814 
10 1 1.138 8.27578 0.758811 -0.0310932 
12 1 4.62583 8.29943 -0.117824 -0.0158286 
14 1 9.55395 8.25755 -0.0375509 -0.0432717 
16 1 14.4536 8.35172 0.0240666 0.0184365 
18 1 18.3023 8.40746 -0.616104 0.0547299 
11 1 2.28364 12.7226 -0.0781004 0.155478 
13 1 7.06679 12.6451 -0.0928283 0.10467 
15 1 12.1925 12.3704 0.11694 -0.07533 
17 1 16.6398 12.3146 -0.117863 -0.11194 
19 1 1.08834 16.858 0.732571 0.138082 
20 1 4.92571 16.4786 0.0787005 -0.110456 
21 1 9.61395 16.5841 0.00177214 -0.0413597 
22 1 14.4082 16.471 -0.00567954 -0.115456 
23 1 18.2304 16.8045 -0.669464 0.103197 
ITEM: TIMESTEP
130
ITEM: NUMBER OF ATOMS
23
ITEM: BOX BOUNDS pp pp pp
0.0000000000000000e+00 2.0000000000000000e+01
0.0000000000000000e+00 2.0000000000000000e+01
-1.0000000000000001e-01 1.0000000000000001e-01
ITEM: ATOMS id type x y vx vy 
1 1 1.10614 0.0539748 0.78342 0.0372506 
3 1 4.77645 19.8333 -0.020385 -0.116461 
5 1 9.62201 0.117375 0.00751733 0.0820041 
7 1 14.306 0.0105346 -0.0774493 0.00735997 
9 1 18.1865 19.8116 -0.734374 -0.131199 
2 1 2.28843 4.26028 -0.0799148 0.0688124 
4 1 7.24918 4.30168 0.0284689 0.0977318 
6 1 12.2357 4.24338 0.154843 0.0570027 
8 1 16.7664 3.96796 -0.0372588 -0.135424 
10 1 1.17774 8.27415 0.836719 -0.0342855 
12 1 4.61966 8.2986 -0.129921 -0.0174537 
14 1 9.55198 8.25529 -0.0414063 -0.0477145 
16 1 14.4549 8.35268 0.0265375 0.0203294 
18 1 18.27 8.41032 -0.679359 0.0603491 
11 1 2.27955 12.7308 -0.086119 0.171441 
13 1 7.06192 12.6506 -0.102359 0.115416 
15 1 12.1986 12.3665 0.128946 -0.0830642 
17 1 16.6337 12.3087 -0.129964 -0.123433 
19 1 1.12671 16.8652 0.807785 0.152259 
20 1 4.92983 16.4728 0.0867808 -0.121797 
21 1 9.61404 16.5819 0.00195409 -0.0456062 
22 1 14.4079 16.4649 -0.00626266 -0.12731 
23 1 18.1954 16.8099 -0.738198 0.113792 
ITEM: TIMESTEP
140
ITEM: NUMBER OF ATOMS
23
ITEM: BOX BOUNDS pp pp pp
0.0000000000000000e+00 2.0000000000000000e+01
0.0000000000000000e+00 2.0000000000000000e+01
-1.0000000000000001e-01 1.0000000000000001e-01
ITEM: ATOMS id type x y vx vy 
1 1 1.14783 0.0559569 0.889511 0.042295 
3 1 4.77536 19.8271 -0.0231455 -0.132232 
5 1 9.62241 0.121738 0.00853533 0.0931091 
7 1 14.3019 0.0109262 -0.0879375 0.00835666 
9 1 18.1475 19.8046 -0.833824 -0.148966 
2 1 2.28417 4.26395 -0.0907369 0.078131 
4 1 7.2507 4.30688 0.0323241 0.110967 
6 1 12.2439 4.24641 0.175812 0.064722 
8 1 16.7644 3.96075 -0.0423044 -0.153763 
10 1 1.22226 8.27232 0.950028 -0.0389285 
12 1 4.61275 8.29767 -0.147515 -0.0198173 
14 1 9.54978 8.25275 -0.0470135 -0.054176 
16 1 14.4563 8.35376 0.0301313 0.0230824 
18 1 18.2338 8.41353 -0.771359 0.0685216 
11 1 2.27496 12.7399 -0.0977813 0.194658 
13 1 7.05648 12.6567 -0.116221 0.131046 
15 1 12.2055 12.3621 0.146408 -0.0943128 
17 1 16.6267 12.3021 -0.147564 -0.140148 
19 1 1.16969 16.8733 0.917176 0.172878 
20 1 4.93445 16.4664 0.0985326 -0.138291 
21 1 9.61415 16.5795 0.00221871 -0.0517822 
22 1 14.4076 16.4582 -0.00711075 -0.144551 
23 1 18.1561 16.816 -0.838165 0.129202 
ITEM: TIMESTEP
150
ITEM: NUMBER OF ATOMS
23
ITEM: BOX BOUNDS pp pp pp
0.0000000000000000e+00 2.0000000000000000e+01
0.0000000000000000e+00 2.0000000000000000e+01
-1.0000000000000001e-01 1.0000000000000001e-01
ITEM: ATOMS id type x y vx vy 
1 1 1.19562 0.0582292 1.02688 0.0488269 
3 1 4.77412 19.82 -0.02672 -0.152653 
5 1 9.62286 0.126741 0.00985348 0.107488 
7 1 14.2972 0.0113751 -0.101518 0.00964722 
9 1 18.1027 19.7966 -0.962595 -0.171972 
2 1 2.2793 4.26814 -0.10475 0.0901972 
4 1 7.25243 4.31284 0.0373161 0.128104 
6 1 12.2534 4.24989 0.202964 0.0747173 
8 1 16.7621 3.95249 -0.0488377 -0.177509 
10 1 1.2733 8.27023 1.09675 -0.0449404 
12 1 4.60482 8.29661 -0.170296 -0.0228778 
14 1 9.54725 8.24984 -0.0542741 -0.0625427 
16 1 14.4579 8.355 0.0347846 0.0266471 
18 1 18.1924 8.41722 -0.890484 0.0791037 
11 1 2.26971 12.7503 -0.112882 0.22472 
13 1 7.05023 12.6638 -0.134169 0.151284 
15 1 12.2133 12.357 0.169019 -0.108878 
17 1 16.6188 12.2946 -0.170353 -0.161792 
19 1 1.21896 16.8826 1.05882 0.199577 
20 1 4.93975 16.4589 0.11375 -0.159648 
21 1 9.61427 16.5767 0.00256135 -0.0597792 
22 1 14.4072 16.4504 -0.0082089 -0.166875 
23 1 18.1111 16.8229 -0.967607 0.149155 
ITEM: TIMESTEP
160
ITEM: NUMBER OF ATOMS
23
ITEM: BOX BOUNDS pp pp pp
0.0000000000000000e+00 2.0000000000000000e+01
0.0000000000000000e+00 2.0000000000000000e+01
-1.0000000000000001e-01 1.0000000000000001e-01
ITEM: ATOMS id type x y vx vy 
1 1 1.25092 0.0608586 1.18803 0.056489 
3 1 4.77268 19.8118 -0.030913 -0.176609 
5 1 9.62339 0.132529 0.0113997 0.124356 
7 1 14.2917 0.0118947 -0.117449 0.0111611 
9 1 18.0508 19.7873 -1.11365 -0.198959 
2 1 2.27366 4.273 -0.121188 0.104351 
4 1 7.25444 4.31974 0.0431719 0.148207 
6 1 12.2643 4.25392 0.234814 0.0864423 
8 1 16.7595 3.94293 -0.0565015 -0.205365 
10 1 1.33236 8.26781 1.26885 -0.0519927 
12 1 4.59565 8.29538 -0.19702 -0.0264679 
14 1 9.54433 8.24647 -0.0627911 -0.0723572 
16 1 14.4598 8.35644 0.0402432 0.0308287 
18 1 18.1444 8.42148 -1.03022 0.0915171 
11 1 2.26363 12.7624 -0.130596 0.259984 
13 1 7.04301 12.6719 -0.155224 0.175024 
15 1 12.2225 12.3511 0.195542 -0.125964 
17 1 16.6096 12.2859 -0.197086 -0.187181 
19 1 1.27598 16.8933 1.22498 0.230895 
20 1 4.94587 16.4503 0.1316 -0.184701 
21 1 9.6144 16.5735 0.0029633 -0.06916 
22 1 14.4067 16.4414 -0.00949709 -0.193061 
23 1 18.059 16.831 -1.11945 0.172561 
ITEM: TIMESTEP
170
ITEM: NUMBER OF ATOMS
23
ITEM: BOX BOUNDS pp pp pp
0.0000000000000000e+00 2.0000000000000000e+01
0.0000000000000000e+00 2.0000000000000000e+01
-1.0000000000000001e-01 1.0000000000000001e-01
ITEM: ATOMS id type x y vx vy 
1 1 1.31456 0.0638847 1.35721 0.0645337 
3 1 4.77102 19.8023 -0.0353154 -0.20176 
5 1 9.62401 0.139191 0.0130232 0.142066 
7 1 14.2854 0.0124926 -0.134175 0.0127506 
9 1 17.9912 19.7766 -1.27225 -0.227293 
2 1 2.26717 4.27859 -0.138446 0.119212 
4 1 7.25676 4.32768 0.0493201 0.169313 
6 1 12.2769 4.25855 0.268254 0.0987527 
8 1 16.7564 3.93193 -0.064548 -0.234611 
10 1 1.40033 8.26503 1.44955 -0.0593971 
12 1 4.5851 8.29396 -0.225078 -0.0302372 
14 1 9.54096 8.24259 -0.0717332 -0.0826617 
16 1 14.4619 8.35809 0.0459743 0.0352191 
18 1 18.0893 8.42638 -1.17694 0.10455 
11 1 2.25664 12.7764 -0.149195 0.297009 
13 1 7.03469 12.6813 -0.177329 0.19995 
15 1 12.2329 12.3444 0.223389 -0.143902 
17 1 16.5991 12.2759 -0.225154 -0.213838 
19 1 1.3416 16.9057 1.39943 0.263778 
20 1 4.95292 16.4404 0.150341 -0.211004 
21 1 9.61456 16.5698 0.0033853 -0.0790092 
22 1 14.4062 16.4311 -0.0108496 -0.220555 
23 1 17.999 16.8402 -1.27887 0.197136 
ITEM: TIMESTEP
180
ITEM: NUMBER OF ATOMS
23
ITEM: BOX BOUNDS pp pp pp
0.0000000000000000e+00 2.0000000000000000e+01
0.0000000000000000e+00 2.0000000000000000e+01
-1.0000000000000001e-01 1.0000000000000001e-01
ITEM: ATOMS id type x y vx vy 
1 1 1.38635 0.0672982 1.50868 0.071736 
3 1 4.76915 19.7917 -0.0392567 -0.224277 
5 1 9.62469 0.146705 0.0144766 0.157921 
7 1 14.2783 0.013167 -0.149149 0.0141736 
9 1 17.9239 19.7646 -1.41423 -0.25266 
2 1 2.25984 4.2849 -0.153897 0.132517 
4 1 7.25937 4.33663 0.0548244 0.188209 
6 1 12.2911 4.26377 0.298193 0.109774 
8 1 16.753 3.91952 -0.0717518 -0.260795 
10 1 1.47701 8.26188 1.61133 -0.066026 
12 1 4.57319 8.29236 -0.250197 -0.0336118 
14 1 9.53717 8.23822 -0.0797389 -0.0918871 
16 1 14.4643 8.35995 0.0511052 0.0391497 
18 1 18.027 8.43191 -1.30829 0.116218 
11 1 2.24874 12.7921 -0.165845 0.330156 
13 1 7.02531 12.6919 -0.19712 0.222265 
15 1 12.2447 12.3368 0.24832 -0.159962 
17 1 16.5872 12.2646 -0.250281 -0.237703 
19 1 1.41563 16.9197 1.55561 0.293216 
20 1 4.96087 16.4293 0.16712 -0.234553 
21 1 9.61474 16.5656 0.00376312 -0.0878269 
22 1 14.4057 16.4194 -0.0120604 -0.24517 
23 1 17.9314 16.8506 -1.4216 0.219137 
ITEM: TIMESTEP
190
ITEM: NUMBER OF ATOMS
23
ITEM: BOX BOUNDS pp pp pp
0.0000000000000000e+00 2.0000000000000000e+01
0.0000000000000000e+00 2.0000000000000000e+01
-1.0000000000000001e-01 1.0000000000000001e-01
ITEM: ATOMS id type x y vx vy 
1 1 1.46458 0.0710179 1.60908 0.0765094 
3 1 4.76712 19.78 -0.041869 -0.239201 
5 1 9.62544 0.154894 0.0154399 0.168429 
7 1 14.2706 0.0139019 -0.159074 0.0151167 
9 1 17.8506 19.7515 -1.50834 -0.269472 
2 1 2.25186 4.29177 -0.164138 0.141335 
4 1 7.26221 4.34639 0.0584726 0.200733 
6 1 12.3065 4.26946 0.318035 0.117079 
8 1 16.7493 3.906 -0.0765264 -0.278149 
10 1 1.56056 8.25846 1.71855 -0.0704195 
12 1 4.56022 8.29062 -0.266846 -0.0358484 
14 1 9.53304 8.23346 -0.0850449 -0.0980015 
16 1 14.467 8.36198 0.0545058 0.0417548 
18 1 17.9592 8.43794 -1.39535 0.123952 
11 1 2.24014 12.8092 -0.176881 0.352125 
13 1 7.01509 12.7034 -0.210237 0.237055 
15 1 12.2576 12.3285 0.264844 -0.170607 
17 1 16.5742 12.2522 -0.266936 -0.25352 
19 1 1.49629 16.9349 1.65912 0.312728 
20 1 4.96954 16.4171 0.17824 -0.250161 
21 1 9.61494 16.561 0.00401352 -0.0936711 
22 1 14.405 16.4067 -0.012863 -0.261485 
23 1 17.8576 16.862 -1.5162 0.233719 
ITEM: TIMESTEP
200
ITEM: NUMBER OF ATOMS
23
ITEM: BOX BOUNDS pp pp pp
0.0000000000000000e+00 2.0000000000000000e+01
0.0000000000000000e+00 2.0000000000000000e+01
-1.0000000000000001e-01 1.0000000000000001e-01
ITEM: ATOMS id type x y vx vy 
1 1 1.5459 0.0748848 1.62893 0.0774533 
3 1 4.765 19.7679 -0.0423855 -0.242152 
5 1 9.62623 0.163407 0.0156304 0.170507 
7 1 14.2625 0.014666 -0.161037 0.0153032 
9 1 17.7743 19.7379 -1.52695 -0.272797 
2 1 2.24357 4.29891 -0.166163 0.143078 
4 1 7.26516 4.35654 0.0591939 0.203209 
6 1 12.3226 4.27538 0.321959 0.118523 
8 1 16.7454 3.89194 -0.0774705 -0.28158 
10 1 1.64742 8.2549 1.73975 -0.0712883 
12 1 4.54673 8.2888 -0.270138 -0.0362907 
14 1 9.52874 8.2285 -0.0860941 -0.0992105 
16 1 14.4697 8.36409 0.0551783 0.0422699 
18 1 17.8886 8.4442 -1.41256 0.125481 
11 1 2.2312 12.827 -0.179063 0.35647 
13 1 7.00447 12.7154 -0.21283 0.239979 
15 1 12.271 12.3199 0.268112 -0.172712 
17 1 16.5607 12.2394 -0.270229 -0.256648 
19 1 1.58014 16.9507 1.67959 0.316586 
20 1 4.97855 16.4045 0.180439 -0.253247 
21 1 9.61514 16.5563 0.00406304 -0.0948267 
22 1 14.4044 16.3935 -0.0130217 -0.26471 
23 1 17.781 16.8738 -1.5349 0.236602 
ITEM: TIMESTEP
210
ITEM: NUMBER OF ATOMS
23
ITEM: BOX BOUNDS pp pp pp
0.0000000000000000e+00 2.0000000000000000e+01
0.0000000000000000e+00 2.0000000000000000e+01
-1.0000000000000001e-01 1.0000000000000001e-01
ITEM: ATOMS id type x y vx vy 
1 1 1.626 0.0786933 1.56148 0.0742463 
3 1 4.76292 19.756 -0.0406305 -0.232125 
5 1 9.62699 0.171791 0.0149832 0.163447 
7 1 14.2546 0.0154184 -0.154369 0.0146696 
9 1 17.6992 19.7245 -1.46372 -0.261501 
2 1 2.2354 4.30595 -0.159283 0.137154 
4 1 7.26807 4.36653 0.056743 0.194795 
6 1 12.3384 4.28121 0.308628 0.113615 
8 1 16.7416 3.87809 -0.0742627 -0.269921 
10 1 1.73296 8.2514 1.66771 -0.0683365 
12 1 4.53345 8.28702 -0.258953 -0.034788 
14 1 9.5245 8.22363 -0.0825293 -0.0951026 
16 1 14.4725 8.36617 0.0528935 0.0405197 
18 1 17.8192 8.45037 -1.35407 0.120285 
11 1 2.2224 12.8445 -0.171649 0.34171 
13 1 6.994 12.7272 -0.204018 0.230043 
15 1 12.2842 12.3114 0.25701 -0.16556 
17 1 16.5474 12.2268 -0.25904 -0.246021 
19 1 1.66273 16.9662 1.61004 0.303477 
20 1 4.98742 16.392 0.172968 -0.242761 
21 1 9.61534 16.5516 0.0038948 -0.0909003 
22 1 14.4037 16.3805 -0.0124825 -0.25375 
23 1 17.7055 16.8854 -1.47135 0.226805 
ITEM: TIMESTEP
220
ITEM: NUMBER OF ATOMS
23
ITEM: BOX BOUNDS pp pp pp
0.0000000000000000e+00 2.0000000000000000e+01
0.0000000000000000e+00 2.0000000000000000e+01
-1.0000000000000001e-01 1.0000000000000001e-01
ITEM: ATOMS id type x y vx vy 
1 1 1.70101 0.0822599 1.43188 0.068084 
3 1 4.76097 19.7449 -0.0372582 -0.212859 
5 1 9.62771 0.179642 0.0137396 0.149881 
7 1 14.2472 0.0161231 -0.141556 0.013452 
9 1 17.6289 19.7119 -1.34224 -0.239797 
2 1 2.22775 4.31254 -0.146063 0.12577 
4 1 7.2708 4.37589 0.0520334 0.178627 
6 1 12.3533 4.28666 0.283012 0.104185 
8 1 16.7381 3.86513 -0.068099 -0.247518 
10 1 1.81307 8.24811 1.5293 -0.0626647 
12 1 4.52101 8.28535 -0.23746 -0.0319007 
14 1 9.52054 8.21906 -0.0756795 -0.0872092 
16 1 14.475 8.36812 0.0485035 0.0371566 
18 1 17.7541 8.45615 -1.24169 0.110302 
11 1 2.21415 12.8609 -0.157402 0.313348 
13 1 6.9842 12.7382 -0.187085 0.210949 
15 1 12.2965 12.3034 0.235679 -0.151819 
17 1 16.535 12.215 -0.23754 -0.225602 
19 1 1.74007 16.9808 1.47641 0.278289 
20 1 4.99573 16.3804 0.158612 -0.222612 
21 1 9.61553 16.5473 0.00357154 -0.0833557 
22 1 14.4031 16.3683 -0.0114465 -0.232689 
23 1 17.6349 16.8963 -1.34923 0.207981 
ITEM: TIMESTEP
230
ITEM: NUMBER OF ATOMS
23
ITEM: BOX BOUNDS pp pp pp
0.0000000000000000e+00 2.0000000000000000e+01
0.0000000000000000e+00 2.0000000000000000e+01
-1.0000000000000001e-01 1.0000000000000001e-01
ITEM: ATOMS id type x y vx vy 
1 1 1.76884 0.0854852 1.28109 0.0609139 
3 1 4.7592 19.7348 -0.0333345 -0.190442 
5 1 9.62836 0.186743 0.0122927 0.134097 
7 1 14.2405 0.0167604 -0.126649 0.0120354 
9 1 17.5653 19.7006 -1.20088 -0.214544 
2 1 2.22083 4.31849 -0.13068 0.112525 
4 1 7.27326 4.38435 0.0465536 0.159816 
6 1 12.3667 4.2916 0.253207 0.0932135 
8 1 16.7348 3.8534 -0.0609274 -0.221451 
10 1 1.88552 8.24515 1.36824 -0.0560653 
12 1 4.50976 8.28384 -0.212453 -0.0285412 
14 1 9.51695 8.21493 -0.0677096 -0.078025 
16 1 14.4773 8.36988 0.0433955 0.0332436 
18 1 17.6953 8.46137 -1.11092 0.0986857 
11 1 2.2067 12.8758 -0.140826 0.280349 
13 1 6.97534 12.7482 -0.167382 0.188734 
15 1 12.3077 12.2962 0.210859 -0.135831 
17 1 16.5237 12.2043 -0.212524 -0.201843 
19 1 1.81001 16.994 1.32093 0.248982 
20 1 5.00324 16.3698 0.141908 -0.199168 
21 1 9.6157 16.5433 0.00319541 -0.0745774 
22 1 14.4026 16.3573 -0.010241 -0.208184 
23 1 17.5709 16.9062 -1.20714 0.186078 
ITEM: TIMESTEP
240
ITEM: NUMBER OF ATOMS
23
ITEM: BOX BOUNDS pp pp pp
0.0000000000000000e+00 2.0000000000000000e+01
0.0000000000000000e+00 2.0000000000000000e+01
-1.0000000000000001e-01 1.0000000000000001e-01
ITEM: ATOMS id type x y vx vy 
1 1 1.82931 0.0883603 1.14111 0.0542581 
3 1 4.75763 19.7258 -0.0296922 -0.169634 
5 1 9.62894 0.193072 0.0109495 0.119445 
7 1 14.2345 0.0173284 -0.11281 0.0107203 
9 1 17.5087 19.6904 -1.06967 -0.191101 
2 1 2.21466 4.3238 -0.116402 0.10023 
4 1 7.27546 4.39189 0.041467 0.142353 
6 1 12.3786 4.296 0.225541 0.0830285 
8 1 16.732 3.84295 -0.0542701 -0.197254 
10 1 1.9501 8.2425 1.21874 -0.0499393 
12 1 4.49974 8.28249 -0.189239 -0.0254226 
14 1 9.51376 8.21124 -0.0603113 -0.0694996 
16 1 14.4793 8.37145 0.0386539 0.0296112 
18 1 17.6429 8.46603 -0.989536 0.0879028 
11 1 2.20005 12.889 -0.125439 0.249717 
13 1 6.96744 12.7571 -0.149093 0.168112 
15 1 12.3177 12.2898 0.187819 -0.120989 
17 1 16.5137 12.1948 -0.189303 -0.179789 
19 1 1.87236 17.0057 1.1766 0.221777 
20 1 5.00994 16.3604 0.126402 -0.177406 
21 1 9.61585 16.5398 0.00284627 -0.0664287 
22 1 14.4021 16.3474 -0.00912202 -0.185437 
23 1 17.514 16.915 -1.07524 0.165746 
ITEM: TIMESTEP
250
ITEM: NUMBER OF ATOMS
23
ITEM: BOX BOUNDS pp pp pp
0.0000000000000000e+00 2.0000000000000000e+01
0.0000000000000000e+00 2.0000000000000000e+01
-1.0000000000000001e-01 1.0000000000000001e-01
ITEM: ATOMS id type x y vx vy 
1 1 1.88339 0.0909317 1.02688 0.048827 
3 1 4.75622 19.7178 -0.02672 -0.152654 
5 1 9.62946 0.198733 0.0098535 0.107489 