ITEM: TIMESTEP
0
ITEM: NUMBER OF ATOMS
137
ITEM: BOX BOUNDS pp pp pp
0.0000000000000000e+00 5.0000000000000000e+01
0.0000000000000000e+00 5.0000000000000000e+01
-1.0000000000000001e-01 1.0000000000000001e-01
ITEM: ATOMS id type x y vx vy 
1 1 0 0 0.564185 0.031965 
3 1 4.80562 0 -0.407047 -1.5052 
5 1 9.61125 0 -0.119458 0.540379 
7 1 14.4169 0 -0.995207 -0.228977 
9 1 19.2225 0 -0.452554 -1.60997 
11 1 24.0281 0 -1.08457 1.46221 
13 1 28.8337 0 -1.25195 0.884756 
15 1 33.6394 0 1.13211 -1.16098 
17 1 38.445 0 -1.53648 -1.57706 
19 1 43.2506 0 -1.12372 1.24741 
21 1 48.0562 0 -0.176798 -0.774898 
2 1 2.40281 4.16179 -1.02062 0.404413 
4 1 7.20843 4.16179 0.0964889 0.702485 
6 1 12.0141 4.16179 1.39903 0.28269 
8 1 16.8197 4.16179 -0.580965 -1.70065 
10 1 21.6253 4.16179 0.374044 -0.626008 
12 1 26.4309 4.16179 -1.53603 -0.484731 
14 1 31.2365 4.16179 -0.623713 -0.796628 
16 1 36.0422 4.16179 0.0765829 -0.0953013 
18 1 40.8478 4.16179 0.85398 0.284973 
20 1 45.6534 4.16179 0.697509 -1.5602 
22 1 0 8.32358 -0.261488 -1.61702 
24 1 4.80562 8.32358 -0.562222 -1.00085 
26 1 9.61125 8.32358 -1.38142 -0.686382 
28 1 14.4169 8.32358 0.837675 -1.57163 
30 1 19.2225 8.32358 -1.52922 0.488765 
32 1 24.0281 8.32358 -1.25528 0.00722297 
34 1 28.8337 8.32358 0.132139 0.398785 
36 1 33.6394 8.32358 -1.541 0.193271 
38 1 38.445 8.32358 -0.934571 1.39763 
40 1 43.2506 8.32358 -0.218906 1.16623 
42 1 48.0562 8.32358 -0.301221 1.36663 
23 1 2.40281 12.4854 1.44707 0.885106 
25 1 7.20843 12.4854 0.421482 -0.47307 
27 1 12.0141 12.4854 -0.692242 1.02145 
29 1 16.8197 12.4854 0.577954 1.38453 
31 1 21.6253 12.4854 1.20648 1.24633 
33 1 26.4309 12.4854 -0.69608 1.32901 
35 1 31.2365 12.4854 1.28722 0.522497 
37 1 36.0422 12.4854 0.0461848 0.988655 
39 1 40.8478 12.4854 -0.936277 -1.35252 
41 1 45.6534 12.4854 -0.763168 1.44719 
43 1 0 16.6472 -0.866679 -1.40839 
45 1 4.80562 16.6472 -0.689192 0.44689 
47 1 9.61125 16.6472 0.809278 0.756761 
49 1 14.4169 16.6472 0.787348 -1.65476 
51 1 19.2225 16.6472 1.049 -1.35286 
53 1 24.0281 16.6472 -0.598899 1.47856 
55 1 28.8337 16.6472 -1.43583 -1.35153 
57 1 33.6394 16.6472 -0.746776 1.50642 
59 1 38.445 16.6472 1.34923 -0.587294 
61 1 43.2506 16.6472 1.31233 1.28263 
63 1 48.0562 16.6472 0.226691 -1.50501 
44 1 2.40281 20.809 -1.41122 0.728696 
46 1 7.20843 20.809 -0.413249 1.18746 
48 1 12.0141 20.809 0.846405 -0.65148 
50 1 16.8197 20.809 -0.641244 -0.555414 
52 1 21.6253 20.809 -0.979805 -0.59223 
54 1 26.4309 20.809 1.04847 -0.536263 
56 1 31.2365 20.809 -0.43527 0.488146 
58 1 36.0422 20.809 0.260334 0.0991183 
60 1 40.8478 20.809 -0.705112 -1.42062 
62 1 45.6534 20.809 -1.44409 -0.971592 
64 1 0 24.9707 1.17778 -1.47172 
66 1 4.80562 24.9707 1.51806 -1.67985 
68 1 9.61125 24.9707 0.00880737 1.4264 
70 1 14.4169 24.9707 -0.163081 -0.297382 
72 1 19.2225 24.9707 -0.0753591 -0.340768 
74 1 24.0281 24.9707 0.0311779 1.52002 
76 1 28.8337 24.9707 -0.413093 0.562265 
78 1 33.6394 24.9707 -1.45347 0.281333 
80 1 38.445 24.9707 -1.49767 -0.628465 
82 1 43.2506 24.9707 -1.48317 0.073096 
84 1 48.0562 24.9707 -0.436377 1.32994 
65 1 2.40281 29.1325 0.191876 -0.129257 
67 1 7.20843 29.1325 1.0261 -0.545175 
69 1 12.0141 29.1325 0.863606 0.0465715 
71 1 16.8197 29.1325 1.15459 0.851782 
73 1 21.6253 29.1325 -0.10969 -0.541497 
75 1 26.4309 29.1325 -1.48259 0.157281 
77 1 31.2365 29.1325 0.08482 -0.992238 
79 1 36.0422 29.1325 -0.104846 -0.144329 
81 1 40.8478 29.1325 1.10495 -0.660592 
83 1 45.6534 29.1325 1.25193 0.470377 
85 1 0 33.2943 0.221645 1.16728 
87 1 4.80562 33.2943 0.598512 0.171752 
89 1 9.61125 33.2943 0.591736 -0.29869 
91 1 14.4169 33.2943 -1.12787 -0.528966 
93 1 19.2225 33.2943 -0.719543 -0.930359 
95 1 24.0281 33.2943 0.707275 0.56395 
97 1 28.8337 33.2943 -0.452877 -0.558378 
99 1 33.6394 33.2943 -1.08965 0.300571 
101 1 38.445 33.2943 1.41702 1.23387 
103 1 43.2506 33.2943 1.01739 -1.18019 
105 1 48.0562 33.2943 -0.808127 0.840008 
86 1 2.40281 37.4561 1.10486 1.11796 
88 1 7.20843 37.4561 -0.252841 1.14175 
90 1 12.0141 37.4561 1.13565 0.0802988 
92 1 16.8197 37.4561 1.4198 -0.568217 
94 1 21.6253 37.4561 0.102869 1.00373 
96 1 26.4309 37.4561 -0.251133 0.690622 
98 1 31.2365 37.4561 1.20689 -1.52973 
100 1 36.0422 37.4561 0.233695 -0.45186 
102 1 40.8478 37.4561 -1.01351 0.022906 
104 1 45.6534 37.4561 0.67639 -0.0597697 
106 1 0 41.6179 1.06209 1.49893 
108 1 4.80562 41.6179 0.051576 0.868301 
110 1 9.61125 41.6179 -1.15109 1.40315 
112 1 14.4169 41.6179 0.254356 0.0797994 
114 1 19.2225 41.6179 -1.27948 -1.63901 
116 1 24.0281 41.6179 0.423315 1.16496 
118 1 28.8337 41.6179 0.739489 0.841721 
120 1 33.6394 41.6179 0.953396 -0.886387 
122 1 38.445 41.6179 0.612402 0.312424 
124 1 43.2506 41.6179 -1.39666 -0.924586 
126 1 48.0562 41.6179 0.101557 -1.60312 
107 1 2.40281 45.7797 0.225429 -0.0283813 
109 1 7.20843 45.7797 0.7585 -0.441952 
111 1 12.0141 45.7797 0.319983 1.33469 
113 1 16.8197 45.7797 0.464279 -0.545639 
115 1 21.6253 45.7797 1.47469 -1.59043 
117 1 26.4309 45.7797 -1.59897 1.25925 
119 1 31.2365 45.7797 1.13293 -0.316358 
121 1 36.0422 45.7797 0.810094 1.49464 
123 1 40.8478 45.7797 1.19222 1.38197 
125 1 45.6534 45.7797 -0.599741 0.294516 
127 1 0 49.9415 0.917007 -0.0329276 
128 1 4.80562 49.9415 0.768401 0.688433 
129 1 9.61125 49.9415 0.603087 -0.702634 
130 1 14.4169 49.9415 0.63539 1.05977 
131 1 19.2225 49.9415 -1.57363 -0.474183 
132 1 24.0281 49.9415 0.123399 -0.676213 
133 1 28.8337 49.9415 -1.27503 -1.35621 
134 1 33.6394 49.9415 0.925517 0.413003 
135 1 38.445 49.9415 0.904067 -0.413482 
136 1 43.2506 49.9415 0.227502 -0.836343 
137 1 48.0562 49.9415 0.791725 0.606204 
ITEM: TIMESTEP
10
ITEM: NUMBER OF ATOMS
137
ITEM: BOX BOUNDS pp pp pp
0.0000000000000000e+00 5.0000000000000000e+01
0.0000000000000000e+00 5.0000000000000000e+01
-1.0000000000000001e-01 1.0000000000000001e-01
ITEM: ATOMS id type x y vx vy 
1 1 0.00279017 6.38079e+12 -0 -0 
3 1 4.80359 6.38079e+12 0 0 
5 1 9.61065 6.38079e+12 0 0 
7 1 14.4119 6.38079e+12 0 0 
9 1 19.2202 6.38079e+12 0 0 
11 1 24.0227 6.38079e+12 0 0 
13 1 28.8275 6.38079e+12 0 0 
15 1 33.645 6.38079e+12 0 0 
17 1 38.4373 6.38079e+12 0 0 
19 1 43.245 6.38079e+12 0 0 
21 1 48.0554 6.38079e+12 0 0 
2 1 2.39771 4.16381 0 0 
4 1 7.20892 4.1653 0 0 
6 1 12.0211 4.1632 0 0 
8 1 16.8168 4.15329 0 0 
10 1 21.6272 4.15866 0 0 
12 1 26.4232 4.15937 0 0 
14 1 31.2334 4.15781 0 0 
16 1 36.0426 4.16132 0 0 
18 1 40.8521 4.16322 0 0 
20 1 45.6569 4.15399 0 0 
22 1 -0.00133462 8.3155 -0 0 
24 1 4.80281 8.31858 0 0 
26 1 9.60434 8.32015 0 0 
28 1 14.4211 8.31573 0 0 
30 1 19.2148 8.32603 0 0 
32 1 24.0218 8.32362 0 0 
34 1 28.8344 8.32558 0 0 
36 1 33.6317 8.32455 0 0 
38 1 38.4403 8.33057 0 0 
40 1 43.2495 8.32941 0 0 
42 1 48.0548 8.33041 0 -0 
23 1 2.41004 12.4898 0 0 
25 1 7.21054 12.483 0 0 
27 1 12.0106 12.4905 0 0 
29 1 16.8226 12.4923 0 0 
31 1 21.6313 12.4916 0 0 
33 1 26.4274 12.492 0 0 
35 1 31.243 12.488 0 0 
37 1 36.0424 12.4903 0 0 
39 1 40.8431 12.4786 0 0 
41 1 45.6496 12.4926 0 0 
43 1 -0.00436025 16.6401 -0 -0 
45 1 4.80218 16.6494 0 0 
47 1 9.61529 16.6509 0 0 
49 1 14.4208 16.6389 0 0 
51 1 19.2277 16.6404 0 0 
53 1 24.0251 16.6546 0 0 
55 1 28.8266 16.6404 0 0 
57 1 33.6356 16.6547 0 0 
59 1 38.4517 16.6442 0 0 
61 1 43.2572 16.6536 0 0 
63 1 48.0574 16.6396 0 0 
44 1 2.39576 20.8126 0 0 
46 1 7.20637 20.8149 0 0 
48 1 12.0183 20.8057 0 0 
50 1 16.8165 20.8062 0 0 
52 1 21.6204 20.806 0 0 
54 1 26.4362 20.8063 0 0 
56 1 31.2344 20.8114 0 0 
58 1 36.0435 20.8095 0 0 
60 1 40.8443 20.8019 0 0 
62 1 45.6462 20.8041 0 0 
64 1 0.00586043 24.9634 -0 0 
66 1 4.81321 24.9624 0 0 
68 1 9.61129 24.9779 0 0 
70 1 14.4161 24.9693 0 0 
72 1 19.2221 24.969 0 0 
74 1 24.0283 24.9783 0 0 
76 1 28.8317 24.9736 0 0 
78 1 33.6321 24.9722 0 0 
80 1 38.4375 24.9676 0 0 
82 1 43.2432 24.9711 0 0 
84 1 48.0541 24.9774 0 -0 
65 1 2.40377 29.1319 0 0 
67 1 7.21356 29.1298 0 0 
69 1 12.0184 29.1328 0 0 
71 1 16.8255 29.1368 0 0 
73 1 21.6248 29.1298 0 0 
75 1 26.4235 29.1333 0 0 
77 1 31.237 29.1276 0 0 
79 1 36.0416 29.1318 0 0 
81 1 40.8533 29.1292 0 0 
83 1 45.6597 29.1349 0 0 
85 1 0.0010808 33.3002 -0 -0 
87 1 4.80861 33.2952 0 0 
89 1 9.6142 33.2928 0 0 
91 1 14.4112 33.2917 0 0 
93 1 19.2189 33.2897 0 0 
95 1 24.0316 33.2972 0 0 
97 1 28.8315 33.2915 0 0 
99 1 33.6339 33.2958 0 0 
101 1 38.4521 33.3005 0 0 
103 1 43.2557 33.2884 0 0 
105 1 48.0522 33.2985 0 0 
86 1 2.40833 37.4617 0 0 
88 1 7.20717 37.4618 0 0 
90 1 12.0197 37.4565 0 0 
92 1 16.8268 37.4533 0 0 
94 1 21.6258 37.4611 0 0 
96 1 26.4297 37.4596 0 0 
98 1 31.2426 37.4485 0 0 
100 1 36.0433 37.4539 0 0 
102 1 40.8427 37.4562 0 0 
104 1 45.6568 37.4558 0 0 
106 1 0.00528183 41.6254 -0 -0 
108 1 4.80588 41.6223 0 0 
110 1 9.60549 41.6249 0 0 
112 1 14.4181 41.6183 0 0 
114 1 19.2161 41.6097 0 0 
116 1 24.0302 41.6237 0 0 
118 1 28.8374 41.6221 0 0 
120 1 33.6441 41.6135 0 0 
122 1 38.448 41.6195 0 0 
124 1 43.2436 41.6133 0 0 
126 1 48.0568 41.6099 0 0 
107 1 2.40394 45.7796 0 0 
109 1 7.21223 45.7775 0 0 
111 1 12.0157 45.7864 0 0 
113 1 16.822 45.777 0 0 
115 1 21.6327 45.7718 0 0 
117 1 26.4229 45.786 0 0 
119 1 31.2422 45.7781 0 0 
121 1 36.0462 45.7872 0 0 
123 1 40.8538 45.7866 0 0 
125 1 45.6504 45.7812 0 0 
127 1 0.00455353 -6.38079e+12 -0 0 
128 1 4.80946 -6.38079e+12 0 0 
129 1 9.61426 -6.38079e+12 0 0 
130 1 14.42 -6.38079e+12 0 0 
131 1 19.2146 -6.38079e+12 0 0 
132 1 24.0287 -6.38079e+12 0 0 
133 1 28.8274 -6.38079e+12 0 0 
134 1 33.644 -6.38079e+12 0 0 
135 1 38.4495 -6.38079e+12 0 0 
136 1 43.2517 -6.38079e+12 0 0 
137 1 48.0602 -6.38079e+12 0 -0 
ITEM: TIMESTEP
20
ITEM: NUMBER OF ATOMS
115
ITEM: BOX BOUNDS pp pp pp
0.0000000000000000e+00 5.0000000000000000e+01
0.0000000000000000e+00 5.0000000000000000e+01
-1.0000000000000001e-01 1.0000000000000001e-01
ITEM: ATOMS id type x y vx vy 
125 1 45.6504 45.7812 0 0 
123 1 40.8538 45.7866 0 0 
121 1 36.0462 45.7872 0 0 
119 1 31.2422 45.7781 0 0 
117 1 26.4229 45.786 0 0 
115 1 21.6327 45.7718 0 0 
113 1 16.822 45.777 0 0 
111 1 12.0157 45.7864 0 0 
109 1 7.21223 45.7775 0 0 
107 1 2.40394 45.7796 0 0 
126 1 48.0568 41.6099 0 0 
2 1 2.39771 4.16381 0 0 
4 1 7.20892 4.1653 0 0 
6 1 12.0211 4.1632 0 0 
8 1 16.8168 4.15329 0 0 
10 1 21.6272 4.15866 0 0 
12 1 26.4232 4.15937 0 0 
14 1 31.2334 4.15781 0 0 
16 1 36.0426 4.16132 0 0 
18 1 40.8521 4.16322 0 0 
20 1 45.6569 4.15399 0 0 
22 1 49.9986 8.3155 -0 0 
24 1 4.80281 8.31858 0 0 
26 1 9.60434 8.32015 0 0 
28 1 14.4211 8.31573 0 0 
30 1 19.2148 8.32603 0 0 
32 1 24.0218 8.32362 0 0 
34 1 28.8344 8.32558 0 0 
36 1 33.6317 8.32455 0 0 
38 1 38.4403 8.33057 0 0 
40 1 43.2495 8.32941 0 0 
42 1 48.0548 8.33041 0 -0 
23 1 2.41004 12.4898 0 0 
25 1 7.21054 12.483 0 0 
27 1 12.0106 12.4905 0 0 
29 1 16.8226 12.4923 0 0 
31 1 21.6313 12.4916 0 0 
33 1 26.4274 12.492 0 0 
35 1 31.243 12.488 0 0 
37 1 36.0424 12.4903 0 0 
39 1 40.8431 12.4786 0 0 
41 1 45.6496 12.4926 0 0 
43 1 49.9956 16.6401 -0 -0 
45 1 4.80218 16.6494 0 0 
47 1 9.61529 16.6509 0 0 
49 1 14.4208 16.6389 0 0 
51 1 19.2277 16.6404 0 0 
53 1 24.0251 16.6546 0 0 
55 1 28.8266 16.6404 0 0 
57 1 33.6356 16.6547 0 0 
59 1 38.4517 16.6442 0 0 
61 1 43.2572 16.6536 0 0 
63 1 48.0574 16.6396 0 0 
44 1 2.39576 20.8126 0 0 
46 1 7.20637 20.8149 0 0 
48 1 12.0183 20.8057 0 0 
50 1 16.8165 20.8062 0 0 
52 1 21.6204 20.806 0 0 
54 1 26.4362 20.8063 0 0 
56 1 31.2344 20.8114 0 0 
58 1 36.0435 20.8095 0 0 
60 1 40.8443 20.8019 0 0 
62 1 45.6462 20.8041 0 0 
64 1 0.00583364 24.9634 -0 0 
66 1 4.81321 24.9624 0 0 
68 1 9.61129 24.9779 0 0 
70 1 14.4161 24.9693 0 0 
72 1 19.2221 24.969 0 0 
74 1 24.0283 24.9783 0 0 
76 1 28.8317 24.9736 0 0 
78 1 33.6321 24.9722 0 0 
80 1 38.4375 24.9676 0 0 
82 1 43.2432 24.9711 0 0 
84 1 48.0541 24.9774 0 -0 
65 1 2.40377 29.1319 0 0 
67 1 7.21356 29.1298 0 0 
69 1 12.0184 29.1328 0 0 
71 1 16.8255 29.1368 0 0 
73 1 21.6248 29.1298 0 0 
75 1 26.4235 29.1333 0 0 
77 1 31.237 29.1276 0 0 
79 1 36.0416 29.1318 0 0 
81 1 40.8533 29.1292 0 0 
83 1 45.6597 29.1349 0 0 
85 1 0.00105373 33.3002 -0 -0 
87 1 4.80861 33.2952 0 0 
89 1 9.6142 33.2928 0 0 
91 1 14.4112 33.2917 0 0 
93 1 19.2189 33.2897 0 0 
95 1 24.0316 33.2972 0 0 
97 1 28.8315 33.2915 0 0 
99 1 33.6339 33.2958 0 0 
101 1 38.4521 33.3005 0 0 
103 1 43.2557 33.2884 0 0 
105 1 48.0522 33.2985 0 0 
86 1 2.40833 37.4617 0 0 
88 1 7.20717 37.4618 0 0 
90 1 12.0197 37.4565 0 0 
92 1 16.8268 37.4533 0 0 
94 1 21.6258 37.4611 0 0 
96 1 26.4297 37.4596 0 0 
98 1 31.2426 37.4485 0 0 
100 1 36.0433 37.4539 0 0 
102 1 40.8427 37.4562 0 0 
104 1 45.6568 37.4558 0 0 
106 1 0.00525473 41.6254 -0 -0 
108 1 4.80588 41.6223 0 0 
110 1 9.60549 41.6249 0 0 
112 1 14.4181 41.6183 0 0 
114 1 19.2161 41.6097 0 0 
116 1 24.0302 41.6237 0 0 
118 1 28.8374 41.6221 0 0 
120 1 33.6441 41.6135 0 0 
122 1 38.448 41.6195 0 0 
124 1 43.2436 41.6133 0 0 
