ITEM: TIMESTEP
0
ITEM: NUMBER OF ATOMS
525
ITEM: BOX BOUNDS pp pp pp
0.0000000000000000e+00 1.0000000000000000e+02
0.0000000000000000e+00 1.0000000000000000e+02
-1.0000000000000001e-01 1.0000000000000001e-01
ITEM: ATOMS id type x y vx vy 
1 1 0 0 0.573158 0.151426 
3 1 4.80562 0 -0.413931 -1.41083 
5 1 9.61125 0 -0.121647 0.668141 
7 1 14.4169 0 -1.0117 -0.113776 
9 1 19.2225 0 -0.460182 -1.51731 
11 1 24.0281 0 -1.10251 1.60502 
13 1 28.8337 0 -1.27263 1.01814 
15 1 33.6394 0 1.15035 -1.06099 
17 1 38.445 0 -1.56181 -1.48387 
19 1 43.2506 0 -1.1423 1.38671 
21 1 48.0562 0 -0.179924 -0.668611 
23 1 52.8619 0 1.47046 1.0185 
25 1 57.6675 0 0.428125 -0.361855 
27 1 62.4731 0 -0.703784 1.15707 
29 1 67.2787 0 0.587152 1.52607 
31 1 72.0843 0 1.22594 1.38562 
33 1 76.89 0 -0.707684 1.46965 
35 1 81.6956 0 1.308 0.649967 
37 1 86.5012 0 0.0467002 1.12374 
39 1 91.3068 0 -0.951803 -1.25566 
41 1 96.1125 0 -0.775867 1.58975 
2 1 2.40281 4.16179 -1.03752 0.529955 
4 1 7.20843 4.16179 0.0978256 0.832894 
6 1 12.0141 4.16179 1.42163 0.406245 
8 1 16.8197 4.16179 -0.59069 -1.60947 
10 1 21.6253 4.16179 0.379912 -0.51729 
12 1 26.4309 4.16179 -1.56135 -0.373706 
14 1 31.2365 4.16179 -0.634136 -0.690696 
16 1 36.0422 4.16179 0.0775946 0.0220819 
18 1 40.8478 4.16179 0.867685 0.408565 
20 1 45.6534 4.16179 0.708659 -1.46673 
22 1 50.459 4.16179 -0.265997 -1.52448 
24 1 55.2647 4.16179 -0.57164 -0.898256 
26 1 60.0703 4.16179 -1.40421 -0.57865 
28 1 64.8759 4.16179 0.851113 -1.47835 
30 1 69.6815 4.16179 -1.55443 0.615685 
32 1 74.4872 4.16179 -1.27602 0.12628 
34 1 79.2928 4.16179 0.134058 0.524236 
36 1 84.0984 4.16179 -1.5664 0.315366 
38 1 88.904 4.16179 -0.950069 1.53939 
40 1 93.7096 4.16179 -0.222719 1.30421 
42 1 98.5153 4.16179 -0.306378 1.50789 
43 1 0 8.32358 -0.881069 -1.31244 
45 1 4.80562 8.32358 -0.700683 0.573126 
47 1 9.61125 8.32358 0.822253 0.888056 
49 1 14.4169 8.32358 0.799965 -1.56284 
51 1 19.2225 8.32358 1.06589 -1.25601 
53 1 24.0281 8.32358 -0.608917 1.62164 
55 1 28.8337 8.32358 -1.45951 -1.25465 
57 1 33.6394 8.32358 -0.759208 1.64995 
59 1 38.445 8.32358 1.37103 -0.477944 
61 1 43.2506 8.32358 1.33352 1.42251 
63 1 48.0562 8.32358 0.230154 -1.41064 
65 1 52.8619 8.32358 0.19477 -0.012428 
67 1 57.6675 8.32358 1.04262 -0.435137 
69 1 62.4731 8.32358 0.877468 0.166271 
71 1 67.2787 8.32358 1.1732 0.984629 
73 1 72.0843 8.32358 -0.111719 -0.431399 
75 1 76.89 8.32358 -1.50703 0.278788 
77 1 81.6956 8.32358 0.0859662 -0.8895 
79 1 86.5012 8.32358 -0.106797 -0.0277462 
81 1 91.3068 8.32358 1.12275 -0.552438 
83 1 96.1125 8.32358 1.27214 0.596997 
44 1 2.40281 12.4854 -1.4345 0.859533 
46 1 7.20843 12.4854 -0.420235 1.32579 
48 1 12.0141 12.4854 0.859987 -0.543178 
50 1 16.8197 12.4854 -0.651952 -0.445544 
52 1 21.6253 12.4854 -0.996042 -0.482961 
54 1 26.4309 12.4854 1.06535 -0.426079 
56 1 31.2365 12.4854 -0.442615 0.615056 
58 1 36.0422 12.4854 0.264346 0.219676 
60 1 40.8478 12.4854 -0.716864 -1.32488 
62 1 45.6534 12.4854 -1.46791 -0.868516 
64 1 50.459 12.4854 1.19677 -1.37681 
66 1 55.2647 12.4854 1.54261 -1.58834 
68 1 60.0703 12.4854 0.00871249 1.56863 
70 1 64.8759 12.4854 -0.165983 -0.183298 
72 1 69.6815 12.4854 -0.0768283 -0.227393 
74 1 74.4872 12.4854 0.0314483 1.66377 
76 1 79.2928 12.4854 -0.420077 0.690385 
78 1 84.0984 12.4854 -1.47744 0.404866 
80 1 88.904 12.4854 -1.52236 -0.519787 
82 1 93.7096 12.4854 -1.50762 0.193229 
84 1 98.5153 12.4854 -0.44374 1.4706 
85 1 0 16.6472 0.225025 1.30528 
87 1 4.80562 16.6472 0.608046 0.293496 
89 1 9.61125 16.6472 0.601159 -0.184628 
91 1 14.4169 16.6472 -1.14653 -0.418663 
93 1 19.2225 16.6472 -0.731531 -0.82661 
95 1 24.0281 16.6472 0.718585 0.692098 
97 1 28.8337 16.6472 -0.46051 -0.448556 
99 1 33.6394 16.6472 -1.10768 0.424418 
101 1 38.445 16.6472 1.43991 1.37296 
103 1 43.2506 16.6472 1.03376 -1.08052 
105 1 48.0562 16.6472 -0.82156 0.972663 
107 1 52.8619 16.6472 0.228872 0.0900946 
109 1 57.6675 16.6472 0.770646 -0.330229 
111 1 62.4731 16.6472 0.324969 1.47542 
113 1 67.2787 16.6472 0.471621 -0.435609 
115 1 72.0843 16.6472 1.49853 -1.49746 
117 1 76.89 16.6472 -1.62532 1.39875 
119 1 81.6956 16.6472 1.15119 -0.202584 
121 1 86.5012 16.6472 0.823082 1.63798 
123 1 91.3068 16.6472 1.21145 1.52348 
125 1 96.1125 16.6472 -0.609772 0.418264 
86 1 2.40281 20.809 1.12267 1.25515 
88 1 7.20843 20.809 -0.257208 1.27933 
90 1 12.0141 20.809 1.15395 0.200549 
92 1 16.8197 20.809 1.44274 -0.458555 
94 1 21.6253 20.809 0.10431 1.13906 
96 1 26.4309 20.809 -0.255472 0.820837 
98 1 31.2365 20.809 1.22636 -1.43577 
100 1 36.0422 20.809 0.237272 -0.340299 
102 1 40.8478 20.809 -1.0303 0.142219 
104 1 45.6534 20.809 0.687195 0.0581937 
106 1 50.459 20.809 1.07919 1.64235 
108 1 55.2647 20.809 0.0521795 1.00142 
110 1 60.0703 20.809 -1.17012 1.545 
112 1 64.8759 20.809 0.25827 0.200042 
114 1 69.6815 20.809 -1.30061 -1.54683 
116 1 74.4872 20.809 0.429988 1.30292 
118 1 79.2928 20.809 0.751325 0.974404 
120 1 84.0984 20.809 0.968724 -0.78192 
122 1 88.904 20.809 0.622162 0.436464 
124 1 93.7096 20.809 -1.4197 -0.820743 
126 1 98.5153 20.809 0.102977 -1.51035 
127 1 0 24.9707 0.931741 0.085474 
129 1 4.80562 24.9707 0.612695 -0.595167 
131 1 9.61125 24.9707 -1.59956 -0.362986 
133 1 14.4169 24.9707 -1.29609 -1.25942 
135 1 19.2225 24.9707 0.91859 -0.301294 
137 1 24.0281 24.9707 0.804413 0.735041 
139 1 28.8337 24.9707 1.43388 -1.22884 
141 1 33.6394 24.9707 1.44759 -1.27611 
143 1 38.445 24.9707 -1.50193 0.393733 
145 1 43.2506 24.9707 1.10291 -1.44079 
147 1 48.0562 24.9707 -0.879083 -0.871843 
149 1 52.8619 24.9707 -0.544591 -0.769776 
151 1 57.6675 24.9707 0.240585 -0.64253 
153 1 62.4731 24.9707 0.179698 0.259701 
155 1 67.2787 24.9707 -1.02629 -1.61772 
157 1 72.0843 24.9707 -1.22595 -1.40933 
159 1 76.89 24.9707 -0.767637 1.59836 
161 1 81.6956 24.9707 1.40417 -0.0754333 
163 1 86.5012 24.9707 0.687546 -0.624742 
165 1 91.3068 24.9707 -0.232777 0.22406 
167 1 96.1125 24.9707 1.10611 -0.274655 
128 1 2.40281 29.1325 0.780708 0.818613 
130 1 7.20843 29.1325 0.645526 1.19602 
132 1 12.0141 29.1325 0.125175 -0.568314 
134 1 16.8197 29.1325 0.94039 0.538686 
136 1 21.6253 29.1325 0.230978 -0.731059 
138 1 26.4309 29.1325 -1.17089 -1.48656 
140 1 31.2365 29.1325 1.05551 -1.08077 
142 1 36.0422 29.1325 -0.902693 0.799376 
144 1 40.8478 29.1325 -0.578776 1.02022 
146 1 45.6534 29.1325 0.532782 -0.0255493 
148 1 50.459 29.1325 -0.0614569 1.24063 
150 1 55.2647 29.1325 -1.57954 0.218177 
152 1 60.0703 29.1325 -0.737082 1.3753 
154 1 64.8759 29.1325 -1.65851 0.0947417 
156 1 69.6815 29.1325 0.754819 0.420323 
158 1 74.4872 29.1325 0.933531 0.517213 
160 1 79.2928 29.1325 -0.529027 0.646872 
162 1 84.0984 29.1325 0.89032 -1.19291 
164 1 88.904 29.1325 0.492635 0.355881 
166 1 93.7096 29.1325 -0.292274 1.43316 
168 1 98.5153 29.1325 -1.24649 -0.892453 
169 1 0 33.2943 -0.2824 -0.579836 
171 1 4.80562 33.2943 -1.45716 -1.3601 
173 1 9.61125 33.2943 1.02335 -1.5922 
175 1 14.4169 33.2943 0.592991 0.854947 
177 1 19.2225 33.2943 1.22246 -1.11752 
179 1 24.0281 33.2943 1.52134 -0.0643477 
181 1 28.8337 33.2943 -1.31506 -0.737571 
183 1 33.6394 33.2943 -0.565994 -1.50971 
185 1 38.445 33.2943 1.28757 -0.195069 
187 1 43.2506 33.2943 -0.0129676 -0.543649 
189 1 48.0562 33.2943 -0.222365 0.674862 
191 1 52.8619 33.2943 -0.906497 -0.550107 
193 1 57.6675 33.2943 -0.819766 1.48356 
195 1 62.4731 33.2943 0.482401 -0.400098 
197 1 67.2787 33.2943 0.387691 -1.50734 
199 1 72.0843 33.2943 0.931816 1.34349 
201 1 76.89 33.2943 0.480852 -0.0892202 
203 1 81.6956 33.2943 0.621087 -1.16454 
205 1 86.5012 33.2943 1.11816 1.21414 
207 1 91.3068 33.2943 0.0769314 -1.24453 
209 1 96.1125 33.2943 -0.148892 0.53446 
170 1 2.40281 37.4561 0.859967 -0.86361 
172 1 7.20843 37.4561 -0.983275 0.0199054 
174 1 12.0141 37.4561 1.03153 0.962205 
176 1 16.8197 37.4561 -1.25266 0.814283 
178 1 21.6253 37.4561 -1.05683 -1.18568 
180 1 26.4309 37.4561 -0.39916 -0.137862 
182 1 31.2365 37.4561 0.574449 -1.20196 
184 1 36.0422 37.4561 1.61082 -1.24429 
186 1 40.8478 37.4561 -1.03946 0.828702 
188 1 45.6534 37.4561 -0.571168 0.446197 
190 1 50.459 37.4561 0.220407 -0.562953 
192 1 55.2647 37.4561 -0.555081 0.776659 
194 1 60.0703 37.4561 1.05876 0.82337 
196 1 64.8759 37.4561 1.20359 1.18523 
198 1 69.6815 37.4561 -0.0127077 0.531179 
200 1 74.4872 37.4561 -0.58745 0.145587 
202 1 79.2928 37.4561 0.971485 -0.480726 
204 1 84.0984 37.4561 1.2959 1.43085 
206 1 88.904 37.4561 -0.194352 0.547067 
208 1 93.7096 37.4561 -1.01262 0.838906 
210 1 98.5153 37.4561 1.48259 0.647458 
211 1 0 41.6179 -0.357326 1.48229 
213 1 4.80562 41.6179 -0.810406 0.728999 
215 1 9.61125 41.6179 1.08508 -1.48986 
217 1 14.4169 41.6179 -0.0396691 -1.42396 
219 1 19.2225 41.6179 -0.801035 0.14293 
221 1 24.0281 41.6179 -0.498351 -0.831992 
223 1 28.8337 41.6179 0.932052 -1.27317 
225 1 33.6394 41.6179 -1.47 0.22054 
227 1 38.445 41.6179 -0.610205 -0.280609 
229 1 43.2506 41.6179 0.198758 1.14505 
231 1 48.0562 41.6179 1.43225 1.06566 
233 1 52.8619 41.6179 -1.52385 0.785532 
235 1 57.6675 41.6179 -1.65847 0.784293 
237 1 62.4731 41.6179 0.145923 -0.947664 
239 1 67.2787 41.6179 0.756356 -0.0890719 
241 1 72.0843 41.6179 -0.695091 -0.937529 
243 1 76.89 41.6179 0.78343 0.463041 
245 1 81.6956 41.6179 0.334467 -0.259384 
247 1 86.5012 41.6179 0.531885 1.366 
249 1 91.3068 41.6179 -0.693847 0.206534 
251 1 96.1125 41.6179 -0.556783 -1.49019 
212 1 2.40281 45.7797 -0.417547 0.400697 
214 1 7.20843 45.7797 0.146547 -0.344806 
216 1 12.0141 45.7797 -0.3248 1.45489 
218 1 16.8197 45.7797 0.336599 -0.657754 
220 1 21.6253 45.7797 0.525286 -0.86778 
222 1 26.4309 45.7797 -0.00693704 -1.28073 
224 1 31.2365 45.7797 -1.03087 0.29451 
226 1 36.0422 45.7797 -1.30682 -0.454412 
228 1 40.8478 45.7797 -0.410705 0.120039 
230 1 45.6534 45.7797 -1.1998 0.0655642 
232 1 50.459 45.7797 -1.06444 -0.735015 
234 1 55.2647 45.7797 0.115209 -0.112679 
236 1 60.0703 45.7797 1.30929 -0.738471 
238 1 64.8759 45.7797 -0.512134 1.35391 
240 1 69.6815 45.7797 0.0857359 -1.46682 
242 1 74.4872 45.7797 1.41166 0.683261 
244 1 79.2928 45.7797 -1.49684 0.343488 
246 1 84.0984 45.7797 1.10082 -0.374879 
248 1 88.904 45.7797 -1.45222 -0.586012 
250 1 93.7096 45.7797 -0.0306904 1.28229 
252 1 98.5153 45.7797 -1.34258 1.13594 
253 1 0 49.9415 0.935738 1.3899 
255 1 4.80562 49.9415 -1.34804 1.56877 
257 1 9.61125 49.9415 -0.0728152 1.35439 
259 1 14.4169 49.9415 -1.2054 1.34822 
261 1 19.2225 49.9415 -0.738977 -0.825981 
263 1 24.0281 49.9415 1.38023 -0.492196 
265 1 28.8337 49.9415 1.52003 0.937804 
267 1 33.6394 49.9415 0.754333 -1.15765 
269 1 38.445 49.9415 0.0656263 -0.236921 
271 1 43.2506 49.9415 1.16589 -0.113085 
273 1 48.0562 49.9415 -0.884943 -0.563421 
275 1 52.8619 49.9415 -1.17893 -1.59894 
277 1 57.6675 49.9415 0.556675 -0.242588 
279 1 62.4731 49.9415 -1.57366 0.247455 
281 1 67.2787 49.9415 -0.750675 0.15787 
283 1 72.0843 49.9415 -0.679317 0.709026 
285 1 76.89 49.9415 -1.24082 -1.17504 
287 1 81.6956 49.9415 -0.728719 0.317805 
289 1 86.5012 49.9415 -1.07839 -1.39402 
291 1 91.3068 49.9415 -0.201378 1.02233 
293 1 96.1125 49.9415 0.563407 0.939345 
254 1 2.40281 54.1033 0.363192 -1.5967 
256 1 7.20843 54.1033 -1.51835 1.14566 
258 1 12.0141 54.1033 -0.302417 -1.08785 
260 1 16.8197 54.1033 -0.678516 0.986731 
262 1 21.6253 54.1033 0.648526 -1.06725 
264 1 26.4309 54.1033 0.140197 1.60971 
266 1 31.2365 54.1033 0.335571 -1.475 
268 1 36.0422 54.1033 0.13518 -0.371901 
270 1 40.8478 54.1033 1.3273 -1.03386 
272 1 45.6534 54.1033 -1.67578 -0.30874 
274 1 50.459 54.1033 0.0382451 0.631498 
276 1 55.2647 54.1033 1.30021 1.5353 
278 1 60.0703 54.1033 -1.2318 -1.06202 
280 1 64.8759 54.1033 -0.0536488 0.737332 
282 1 69.6815 54.1033 1.0593 0.0831324 
284 1 74.4872 54.1033 0.96473 1.25409 
286 1 79.2928 54.1033 0.137255 1.55781 
288 1 84.0984 54.1033 -1.32242 0.77052 
290 1 88.904 54.1033 0.250349 -1.20732 
292 1 93.7096 54.1033 -1.38885 0.661833 
294 1 98.5153 54.1033 -0.666661 -0.651132 
295 1 0 58.2651 -0.394308 -0.939436 
297 1 4.80562 58.2651 1.45366 -1.39512 
299 1 9.61125 58.2651 -0.198473 0.441173 
301 1 14.4169 58.2651 -0.59958 0.462937 
303 1 19.2225 58.2651 1.51422 -1.22331 
305 1 24.0281 58.2651 0.628993 -0.033948 
307 1 28.8337 58.2651 0.601274 -1.53822 
309 1 33.6394 58.2651 -0.450037 1.01947 
311 1 38.445 58.2651 -1.66053 -0.961464 
313 1 43.2506 58.2651 -1.4471 -0.257601 
315 1 48.0562 58.2651 -0.923934 -0.508892 
317 1 52.8619 58.2651 0.540846 0.472962 
319 1 57.6675 58.2651 1.18684 -0.33725 
321 1 62.4731 58.2651 0.331921 -0.244739 
323 1 67.2787 58.2651 0.510177 -1.22079 
325 1 72.0843 58.2651 -0.877418 0.763735 
327 1 76.89 58.2651 0.407058 1.24322 
329 1 81.6956 58.2651 0.99477 -1.03679 
331 1 86.5012 58.2651 -1.55168 0.700732 
333 1 91.3068 58.2651 -1.23373 -0.579186 
335 1 96.1125 58.2651 -1.35987 0.326427 
296 1 2.40281 62.4269 0.079089 -1.20916 
298 1 7.20843 62.4269 -1.324 0.496672 
300 1 12.0141 62.4269 -0.53093 1.59177 
302 1 16.8197 62.4269 0.510618 -0.389126 
304 1 21.6253 62.4269 0.111548 0.935405 
306 1 26.4309 62.4269 -0.303331 0.021928 
308 1 31.2365 62.4269 -0.197188 -1.00817 
310 1 36.0422 62.4269 0.815743 0.145011 
312 1 40.8478 62.4269 1.29738 -0.0220032 
314 1 45.6534 62.4269 -1.10521 -0.977269 
316 1 50.459 62.4269 1.23223 -1.50379 
318 1 55.2647 62.4269 -1.65657 -0.218748 
320 1 60.0703 62.4269 0.618087 1.105 
322 1 64.8759 62.4269 -1.5082 0.458309 
324 1 69.6815 62.4269 1.40028 0.520772 
326 1 74.4872 62.4269 -0.479055 0.735176 
328 1 79.2928 62.4269 0.754193 -0.226635 
330 1 84.0984 62.4269 -0.090297 0.641851 
332 1 88.904 62.4269 -0.64324 1.08601 
334 1 93.7096 62.4269 0.583342 0.0582822 
336 1 98.5153 62.4269 0.910305 -1.22959 
337 1 0 66.5887 -1.22302 1.59875 
339 1 4.80562 66.5887 0.935941 1.51464 
341 1 9.61125 66.5887 1.40049 0.671962 
343 1 14.4169 66.5887 1.12381 0.720245 
345 1 19.2225 66.5887 -1.60202 1.01787 
347 1 24.0281 66.5887 -0.82172 1.57765 
349 1 28.8337 66.5887 1.34171 0.74706 
351 1 33.6394 66.5887 -1.36021 1.26188 
353 1 38.445 66.5887 0.560376 -0.61844 
355 1 43.2506 66.5887 -1.03289 -0.609651 
357 1 48.0562 66.5887 -1.40022 0.567646 
359 1 52.8619 66.5887 1.14759 -1.35206 
361 1 57.6675 66.5887 1.22561 -0.869354 
363 1 62.4731 66.5887 1.35588 -1.39926 
365 1 67.2787 66.5887 1.01928 -0.770671 
367 1 72.0843 66.5887 -0.346068 -0.313458 
369 1 76.89 66.5887 0.0681657 -0.36982 
371 1 81.6956 66.5887 -0.738161 -0.294987 
373 1 86.5012 66.5887 -0.972462 0.628105 
375 1 91.3068 66.5887 0.0990642 -1.40462 
377 1 96.1125 66.5887 1.01589 1.48034 
338 1 2.40281 70.7505 -1.15704 0.663879 
340 1 7.20843 70.7505 0.654955 1.59764 
342 1 12.0141 70.7505 0.241167 -0.734791 
344 1 16.8197 70.7505 -1.2647 -0.653993 
346 1 21.6253 70.7505 -0.456116 0.952824 
348 1 26.4309 70.7505 -0.207546 -0.555645 
350 1 31.2365 70.7505 -0.917457 -0.328226 
352 1 36.0422 70.7505 -1.50603 0.689177 
354 1 40.8478 70.7505 -0.415615 -0.0656368 
356 1 45.6534 70.7505 -1.39964 0.423604 
358 1 50.459 70.7505 0.0687363 -0.660701 
360 1 55.2647 70.7505 0.124446 0.35297 
362 1 60.0703 70.7505 0.840728 -1.47443 
364 1 64.8759 70.7505 0.0562802 0.76309 
366 1 69.6815 70.7505 1.05172 0.996037 
368 1 74.4872 70.7505 0.866698 0.285177 
370 1 79.2928 70.7505 1.57428 0.481727 
372 1 84.0984 70.7505 0.0431453 0.655952 
374 1 88.904 70.7505 -0.442046 0.307576 
376 1 93.7096 70.7505 1.09496 -0.109604 
378 1 98.5153 70.7505 -0.56398 -0.600701 
379 1 0 74.9122 -1.57567 -0.702326 
381 1 4.80562 74.9122 0.612356 0.294122 
383 1 9.61125 74.9122 -0.329597 -0.132937 
385 1 14.4169 74.9122 -0.876344 -0.943145 
387 1 19.2225 74.9122 -1.18213 0.590849 
389 1 24.0281 74.9122 -0.527869 0.359123 
391 1 28.8337 74.9122 1.5203 -1.08939 
393 1 33.6394 74.9122 0.768247 -1.14306 
395 1 38.445 74.9122 -0.993 1.23146 
397 1 43.2506 74.9122 0.435918 -1.11769 
399 1 48.0562 74.9122 0.742521 1.20925 
401 1 52.8619 74.9122 1.49325 -1.22472 
403 1 57.6675 74.9122 1.61602 0.521808 
405 1 62.4731 74.9122 -0.864176 -0.627726 
407 1 67.2787 74.9122 -0.249377 1.15338 
409 1 72.0843 74.9122 -0.941391 -0.813214 
411 1 76.89 74.9122 0.693297 0.515818 
413 1 81.6956 74.9122 0.916843 -0.0156448 
415 1 86.5012 74.9122 -0.388719 0.786628 
417 1 91.3068 74.9122 -1.33302 0.452333 
419 1 96.1125 74.9122 0.527048 -0.889702 
380 1 2.40281 79.074 -1.37116 1.56371 
382 1 7.20843 79.074 0.570308 1.65787 
384 1 12.0141 79.074 -1.1748 -1.41302 
386 1 16.8197 79.074 -0.290181 0.37555 
388 1 21.6253 79.074 0.989304 -0.689665 
390 1 26.4309 79.074 1.17622 -1.03572 
392 1 31.2365 79.074 -1.11654 -0.244163 
394 1 36.0422 79.074 -0.467475 1.05911 
396 1 40.8478 79.074 -1.47402 -1.54301 
398 1 45.6534 79.074 0.296714 0.829845 
400 1 50.459 79.074 0.767108 -0.525265 
402 1 55.2647 79.074 0.920714 -0.827275 
404 1 60.0703 79.074 0.577387 -1.22834 
406 1 64.8759 79.074 0.0444908 0.216823 
408 1 69.6815 79.074 0.598988 -0.44939 
410 1 74.4872 79.074 0.895522 0.616723 
412 1 79.2928 79.074 0.0819285 0.408968 
414 1 84.0984 79.074 0.998584 0.495227 
416 1 88.904 79.074 0.892398 0.797164 
418 1 93.7096 79.074 0.485527 -0.545228 
420 1 98.5153 79.074 -0.101253 0.93255 
421 1 0 83.2358 -0.821431 -0.145037 
423 1 4.80562 83.2358 0.643694 0.0539012 
425 1 9.61125 83.2358 -1.15084 -0.482051 
427 1 14.4169 83.2358 -0.34621 0.591703 
429 1 19.2225 83.2358 1.17667 -0.102783 
431 1 24.0281 83.2358 0.829611 -0.605033 
433 1 28.8337 83.2358 1.41374 -0.613874 
435 1 33.6394 83.2358 1.43807 -0.0650252 
437 1 38.445 83.2358 -1.66662 -1.07708 
439 1 43.2506 83.2358 -0.0680636 -1.11896 
441 1 48.0562 83.2358 -0.0356674 -0.0333458 
443 1 52.8619 83.2358 1.18863 0.058173 
445 1 57.6675 83.2358 0.79242 0.0558582 
447 1 62.4731 83.2358 0.175479 -1.49142 
449 1 67.2787 83.2358 1.41602 1.61283 
451 1 72.0843 83.2358 -0.754475 -1.13617 
453 1 76.89 83.2358 -0.982189 -1.48544 
455 1 81.6956 83.2358 -0.419739 -0.210992 
457 1 86.5012 83.2358 1.56073 -0.0357098 
459 1 91.3068 83.2358 -0.645455 0.0770246 
461 1 96.1125 83.2358 -1.41731 -0.112506 
422 1 2.40281 87.3976 0.715741 -0.995649 
424 1 7.20843 87.3976 -0.835962 -0.669437 
426 1 12.0141 87.3976 0.947987 -0.221477 
428 1 16.8197 87.3976 -1.14594 -0.465612 
430 1 21.6253 87.3976 0.887682 0.579626 
432 1 26.4309 87.3976 -1.56332 -0.567231 
434 1 31.2365 87.3976 -0.978736 0.552389 
436 1 36.0422 87.3976 1.07206 0.34668 
438 1 40.8478 87.3976 0.812206 -0.0227816 
440 1 45.6534 87.3976 0.0484008 0.066779 
442 1 50.459 87.3976 -0.923356 -0.681983 
444 1 55.2647 87.3976 0.229324 1.10082 
446 1 60.0703 87.3976 -1.1732 -0.754819 
448 1 64.8759 87.3976 0.884276 -0.680323 
450 1 69.6815 87.3976 0.85815 1.53122 
452 1 74.4872 87.3976 -0.275958 -0.994747 
454 1 79.2928 87.3976 1.46915 -1.34131 
456 1 84.0984 87.3976 -1.08664 1.58987 
458 1 88.904 87.3976 -0.749925 -0.404758 
460 1 93.7096 87.3976 -1.18208 1.4899 
462 1 98.5153 87.3976 1.16944 0.23812 
463 1 0 91.5594 -0.345518 -0.960288 
465 1 4.80562 91.5594 1.50261 1.31174 
467 1 9.61125 91.5594 0.61364 -1.1837 
469 1 14.4169 91.5594 1.25072 -0.399161 
471 1 19.2225 91.5594 -0.945289 -0.455529 
473 1 24.0281 91.5594 -1.29107 0.720181 
475 1 28.8337 91.5594 -0.332704 0.346079 
477 1 33.6394 91.5594 0.921035 1.28017 
479 1 38.445 91.5594 0.745431 0.707302 
481 1 43.2506 91.5594 -0.125596 0.169822 
483 1 48.0562 91.5594 0.779607 -1.22262 
485 1 52.8619 91.5594 0.473305 1.51164 
487 1 57.6675 91.5594 1.31227 0.0659963 
489 1 62.4731 91.5594 -1.58654 1.11305 
491 1 67.2787 91.5594 -0.295429 1.10146 
493 1 72.0843 91.5594 0.082426 -1.11067 
495 1 76.89 91.5594 0.407883 -1.35312 
497 1 81.6956 91.5594 -1.03795 -0.0240901 
499 1 86.5012 91.5594 0.457131 -0.268937 
501 1 91.3068 91.5594 0.925823 -0.58642 
503 1 96.1125 91.5594 0.328462 0.897676 
464 1 2.40281 95.7212 0.738054 -1.41135 
466 1 7.20843 95.7212 -0.81112 -1.4022 
468 1 12.0141 95.7212 0.836019 -1.57673 
470 1 16.8197 95.7212 1.1905 -1.4441 
472 1 21.6253 95.7212 1.19714 1.42624 
474 1 26.4309 95.7212 -0.691753 -0.837957 
476 1 31.2365 95.7212 -0.131572 -1.4662 
478 1 36.0422 95.7212 -0.780208 1.09054 
480 1 40.8478 95.7212 1.54321 -1.46641 
482 1 45.6534 95.7212 0.378403 0.45984 
484 1 50.459 95.7212 1.55702 0.154461 
486 1 55.2647 95.7212 0.849119 1.23246 
488 1 60.0703 95.7212 -0.357891 -1.42582 
490 1 64.8759 95.7212 -0.38657 0.684692 
492 1 69.6815 95.7212 -0.517599 -1.58341 
494 1 74.4872 95.7212 0.580636 0.693871 
496 1 79.2928 95.7212 0.472463 0.531133 
498 1 84.0984 95.7212 1.53021 0.730324 
500 1 88.904 95.7212 1.08086 0.0447909 
502 1 93.7096 95.7212 -1.40128 -0.775608 
504 1 98.5153 95.7212 -0.951992 -1.14114 
505 1 0 99.883 0.421499 0.247814 
506 1 4.80562 99.883 -1.55457 1.54853 
507 1 9.61125 99.883 0.926207 -0.714632 
508 1 14.4169 99.883 0.366549 -1.16799 
509 1 19.2225 99.883 0.464267 1.10705 
510 1 24.0281 99.883 1.21832 -1.5748 
511 1 28.8337 99.883 1.07747 -0.90911 
512 1 33.6394 99.883 -1.5914 1.66987 
513 1 38.445 99.883 0.761262 0.03111 
514 1 43.2506 99.883 1.34003 -1.1282 
515 1 48.0562 99.883 1.56212 0.218141 
516 1 52.8619 99.883 0.647277 1.0013 
517 1 57.6675 99.883 0.187057 -1.20176 
518 1 62.4731 99.883 -0.367842 -0.707484 
519 1 67.2787 99.883 -1.52262 -1.57856 
520 1 72.0843 99.883 -1.22953 0.984141 
521 1 76.89 99.883 0.212902 -1.55385 
522 1 81.6956 99.883 -1.6175 1.15629 
523 1 86.5012 99.883 -0.357587 0.384933 
524 1 91.3068 99.883 0.0585841 -0.0362368 
525 1 96.1125 99.883 -1.66493 0.872973 
ITEM: TIMESTEP
10
ITEM: NUMBER OF ATOMS
525
ITEM: BOX BOUNDS pp pp pp
0.0000000000000000e+00 1.0000000000000000e+02
0.0000000000000000e+00 1.0000000000000000e+02
-1.0000000000000001e-01 1.0000000000000001e-01
ITEM: ATOMS id type x y vx vy 
1 1 0.00286578 7.78904e+08 0 0 
3 1 4.80355 7.78904e+08 0 0 
5 1 9.61064 7.78904e+08 0 0 
7 1 14.4118 7.78904e+08 0 0 
9 1 19.2202 7.78904e+08 0 0 
11 1 24.0226 7.78904e+08 0 0 
13 1 28.8274 7.78904e+08 0 0 
15 1 33.6451 7.78904e+08 0 0 
17 1 38.4372 7.78904e+08 0 0 
19 1 43.2449 7.78904e+08 0 0 
21 1 48.0553 7.78904e+08 0 0 
23 1 52.8692 7.78904e+08 0 0 
25 1 57.6696 7.78904e+08 0 0 
27 1 62.4696 7.78904e+08 0 0 
29 1 67.2817 7.78904e+08 0 0 
31 1 72.0905 7.78904e+08 0 0 
33 1 76.8864 7.78904e+08 0 0 
35 1 81.7021 7.78904e+08 0 0 
37 1 86.5014 7.78904e+08 0 0 
39 1 91.3021 7.78904e+08 0 0 
41 1 96.1086 7.78904e+08 0 0 
2 1 2.39762 4.16444 0 0 
4 1 7.20892 4.16596 0 0 
6 1 12.0212 4.16382 0 0 
8 1 16.8167 4.15374 0 0 
10 1 21.6272 4.15921 0 0 
12 1 26.4231 4.15992 0 0 
14 1 31.2334 4.15834 0 0 
16 1 36.0426 4.1619 0 0 
18 1 40.8521 4.16383 0 0 
20 1 45.657 4.15446 0 0 
22 1 50.4577 4.15417 0 0 
24 1 55.2618 4.1573 0 0 
26 1 60.0633 4.1589 0 0 
28 1 64.8802 4.1544 0 0 
30 1 69.6738 4.16487 0 0 
32 1 74.4808 4.16242 0 0 
34 1 79.2934 4.16441 0 0 
36 1 84.0906 4.16337 0 0 
38 1 88.8993 4.16949 0 0 
40 1 93.7085 4.16831 0 0 
42 1 98.5137 4.16933 0 0 
43 1 -0.00440532 8.31702 0 0 
45 1 4.80212 8.32645 0 0 
47 1 9.61536 8.32802 0 0 
49 1 14.4209 8.31577 0 0 
51 1 19.2278 8.3173 0 0 
53 1 24.0251 8.33169 0 0 
55 1 28.8264 8.31731 0 0 
57 1 33.6356 8.33183 0 0 
59 1 38.4518 8.32119 0 0 
61 1 43.2573 8.3307 0 0 
63 1 48.0574 8.31653 0 0 
65 1 52.8628 8.32352 0 0 
67 1 57.6727 8.32141 0 0 
69 1 62.4775 8.32441 0 0 
71 1 67.2846 8.32851 0 0 
73 1 72.0838 8.32143 0 0 
75 1 76.8824 8.32498 0 0 
77 1 81.696 8.31914 0 0 
79 1 86.5007 8.32344 0 0 
81 1 91.3124 8.32082 0 0 
83 1 96.1188 8.32657 0 0 
44 1 2.39564 12.4897 0 0 
46 1 7.20633 12.492 0 0 
48 1 12.0184 12.4827 0 0 
50 1 16.8164 12.4831 0 0 
52 1 21.6203 12.483 0 0 
54 1 26.4363 12.4832 0 0 
56 1 31.2343 12.4884 0 0 
58 1 36.0435 12.4865 0 0 
60 1 40.8442 12.4787 0 0 
62 1 45.6461 12.481 0 0 
64 1 50.465 12.4785 0 0 
66 1 55.2724 12.4774 0 0 
68 1 60.0703 12.4932 0 0 
70 1 64.8751 12.4845 0 0 
72 1 69.6811 12.4842 0 0 
74 1 74.4873 12.4937 0 0 
76 1 79.2907 12.4888 0 0 
78 1 84.091 12.4874 0 0 
80 1 88.8964 12.4828 0 0 
82 1 93.7021 12.4863 0 0 
84 1 98.513 12.4927 0 0 
85 1 0.00112512 16.6537 0 0 
87 1 4.80866 16.6486 0 0 
89 1 9.61425 16.6462 0 0 
91 1 14.4111 16.6451 0 0 
93 1 19.2188 16.643 0 0 
95 1 24.0317 16.6506 0 0 
97 1 28.8314 16.6449 0 0 
99 1 33.6338 16.6493 0 0 
101 1 38.4522 16.654 0 0 
103 1 43.2558 16.6418 0 0 
105 1 48.0521 16.652 0 0 
107 1 52.863 16.6476 0 0 
109 1 57.6713 16.6455 0 0 
111 1 62.4747 16.6545 0 0 
113 1 67.2811 16.645 0 0 
115 1 72.0918 16.6397 0 0 
117 1 76.8818 16.6542 0 0 
119 1 81.7013 16.6462 0 0 
121 1 86.5053 16.6554 0 0 
123 1 91.3129 16.6548 0 0 
125 1 96.1094 16.6493 0 0 
86 1 2.40842 20.8152 0 0 
88 1 7.20715 20.8154 0 0 
90 1 12.0198 20.81 0 0 
92 1 16.8269 20.8067 0 0 
94 1 21.6258 20.8147 0 0 
96 1 26.4296 20.8131 0 0 
98 1 31.2427 20.8018 0 0 
100 1 36.0434 20.8073 0 0 
102 1 40.8426 20.8097 0 0 
104 1 45.6569 20.8092 0 0 
106 1 50.4644 20.8172 0 0 
108 1 55.2649 20.814 0 0 
110 1 60.0644 20.8167 0 0 
112 1 64.8772 20.81 0 0 
114 1 69.675 20.8012 0 0 
116 1 74.4893 20.8155 0 0 
118 1 79.2965 20.8138 0 0 
120 1 84.1032 20.805 0 0 
122 1 88.9071 20.8111 0 0 
124 1 93.7025 20.8049 0 0 
126 1 98.5158 20.8014 0 0 
127 1 0.00465869 24.9712 0 0 
129 1 4.80869 24.9678 0 0 
131 1 9.60325 24.9689 0 0 
133 1 14.4104 24.9645 0 0 
135 1 19.2271 24.9692 0 0 
137 1 24.0321 24.9744 0 0 
139 1 28.8409 24.9646 0 0 
141 1 33.6466 24.9644 0 0 
143 1 38.4375 24.9727 0 0 
145 1 43.2561 24.9635 0 0 
147 1 48.0518 24.9664 0 0 
149 1 52.8591 24.9669 0 0 
151 1 57.6687 24.9675 0 0 
153 1 62.474 24.972 0 0 
155 1 67.2736 24.9627 0 0 
157 1 72.0782 24.9637 0 0 
159 1 76.8861 24.9787 0 0 
161 1 81.7026 24.9704 0 0 
163 1 86.5046 24.9676 0 0 
165 1 91.3057 24.9719 0 0 
167 1 96.118 24.9694 0 0 
128 1 2.40671 29.1366 0 0 
130 1 7.21166 29.1385 0 0 
132 1 12.0147 29.1297 0 0 
134 1 16.8244 29.1352 0 0 
136 1 21.6265 29.1289 0 0 
138 1 26.4251 29.1251 0 0 
140 1 31.2418 29.1271 0 0 
142 1 36.0377 29.1365 0 0 
144 1 40.8449 29.1376 0 0 
146 1 45.6561 29.1324 0 0 
148 1 50.4587 29.1387 0 0 
150 1 55.2568 29.1336 0 0 
152 1 60.0666 29.1394 0 0 
154 1 64.8676 29.133 0 0 
156 1 69.6853 29.1346 0 0 
158 1 74.4918 29.1351 0 0 
160 1 79.2901 29.1358 0 0 
162 1 84.1029 29.1266 0 0 
164 1 88.9065 29.1343 0 0 
166 1 93.7082 29.1397 0 0 
168 1 98.509 29.1281 0 0 
169 1 -0.00141199 33.2914 0 0 
171 1 4.79834 33.2875 0 0 
173 1 9.61636 33.2864 0 0 
175 1 14.4198 33.2986 0 0 
177 1 19.2286 33.2887 0 0 
179 1 24.0357 33.294 0 0 
181 1 28.8272 33.2906 0 0 
183 1 33.6365 33.2868 0 0 
185 1 38.4514 33.2934 0 0 
187 1 43.2505 33.2916 0 0 
189 1 48.0551 33.2977 0 0 
191 1 52.8573 33.2916 0 0 
193 1 57.6634 33.3017 0 0 
195 1 62.4755 33.2923 0 0 
197 1 67.2807 33.2868 0 0 
199 1 72.089 33.301 0 0 
201 1 76.8924 33.2939 0 0 
203 1 81.6987 33.2885 0 0 
205 1 86.5068 33.3004 0 0 
207 1 91.3072 33.2881 0 0 
209 1 96.1117 33.297 0 0 
170 1 2.40711 37.4518 0 0 
172 1 7.20352 37.4562 0 0 
174 1 12.0192 37.4609 0 0 
176 1 16.8134 37.4602 0 0 
178 1 21.62 37.4502 0 0 
180 1 26.4289 37.4554 0 0 
182 1 31.2394 37.4501 0 0 
184 1 36.0502 37.4499 0 0 
186 1 40.8426 37.4603 0 0 
188 1 45.6506 37.4584 0 0 
190 1 50.4601 37.4533 0 0 
192 1 55.2619 37.46 0 0 
194 1 60.0756 37.4602 0 0 
196 1 64.8819 37.462 0 0 
198 1 69.6815 37.4588 0 0 
200 1 74.4842 37.4569 0 0 
202 1 79.2976 37.4537 0 0 
204 1 84.1049 37.4633 0 0 
206 1 88.9031 37.4589 0 0 
208 1 93.7046 37.4603 0 0 
210 1 98.5227 37.4594 0 0 
211 1 -0.00178662 41.6253 0 0 
213 1 4.80157 41.6216 0 0 
215 1 9.61667 41.6105 0 0 
217 1 14.4167 41.6108 0 0 
219 1 19.2185 41.6186 0 0 
221 1 24.0256 41.6138 0 0 
223 1 28.8384 41.6115 0 0 
225 1 33.632 41.619 0 0 
227 1 38.4419 41.6165 0 0 
229 1 43.2516 41.6236 0 0 
231 1 48.0634 41.6232 0 0 
233 1 52.8542 41.6218 0 0 
235 1 57.6592 41.6218 0 0 
237 1 62.4738 41.6132 0 0 
239 1 67.2825 41.6175 0 0 
241 1 72.0809 41.6132 0 0 
243 1 76.8939 41.6202 0 0 
245 1 81.6973 41.6166 0 0 
247 1 86.5039 41.6247 0 0 
249 1 91.3034 41.6189 0 0 
251 1 96.1097 41.6105 0 0 
212 1 2.40072 45.7817 0 0 
214 1 7.20917 45.778 0 0 
216 1 12.0124 45.787 0 0 
218 1 16.8214 45.7764 0 0 
220 1 21.6279 45.7754 0 0 
222 1 26.4309 45.7733 0 0 
224 1 31.2314 45.7812 0 0 
226 1 36.0356 45.7774 0 0 
228 1 40.8457 45.7803 0 0 
230 1 45.6474 45.78 0 0 
232 1 50.4537 45.776 0 0 
234 1 55.2652 45.7791 0 0 
236 1 60.0768 45.776 0 0 
238 1 64.8733 45.7865 0 0 
240 1 69.682 45.7724 0 0 
242 1 74.4942 45.7831 0 0 
244 1 79.2853 45.7814 0 0 
246 1 84.1039 45.7778 0 0 
248 1 88.8968 45.7768 0 0 
250 1 93.7095 45.7861 0 0 
252 1 98.5086 45.7854 0 0 
253 1 0.00467867 49.9484 0 0 
255 1 4.79888 49.9493 0 0 
257 1 9.61088 49.9483 0 0 
259 1 14.4108 49.9482 0 0 
261 1 19.2188 49.9374 0 0 
263 1 24.035 49.939 0 0 
265 1 28.8413 49.9462 0 0 
267 1 33.6431 49.9357 0 0 
269 1 38.4453 49.9403 0 0 
271 1 43.2564 49.9409 0 0 
273 1 48.0518 49.9387 0 0 
275 1 52.856 49.9335 0 0 
277 1 57.6703 49.9403 0 0 
279 1 62.4652 49.9427 0 0 
281 1 67.275 49.9423 0 0 
283 1 72.0809 49.945 0 0 
285 1 76.8838 49.9356 0 0 
287 1 81.6919 49.9431 0 0 
289 1 86.4958 49.9345 0 0 
291 1 91.3058 49.9466 0 0 
293 1 96.1153 49.9462 0 0 
254 1 2.40463 54.0953 0 0 
256 1 7.20084 54.109 0 0 
258 1 12.0125 54.0978 0 0 
260 1 16.8163 54.1082 0 0 
262 1 21.6285 54.098 0 0 
264 1 26.4316 54.1113 0 0 
266 1 31.2382 54.0959 0 0 
268 1 36.0428 54.1014 0 0 
270 1 40.8544 54.0981 0 0 
272 1 45.645 54.1017 0 0 
274 1 50.4592 54.1064 0 0 
276 1 55.2712 54.111 0 0 
278 1 60.0641 54.098 0 0 
280 1 64.8756 54.107 0 0 
282 1 69.6868 54.1037 0 0 
284 1 74.492 54.1096 0 0 
286 1 79.2935 54.1111 0 0 
288 1 84.0918 54.1071 0 0 
290 1 88.9053 54.0973 0 0 
292 1 93.7027 54.1066 0 0 
294 1 98.5119 54.1 0 0 
295 1 -0.00197153 58.2604 0 0 
297 1 4.81289 58.2581 0 0 
299 1 9.61025 58.2673 0 0 
301 1 14.4139 58.2674 0 0 
303 1 19.2301 58.259 0 0 
305 1 24.0313 58.2649 0 0 
307 1 28.8367 58.2574 0 0 
309 1 33.6371 58.2702 0 0 
311 1 38.4367 58.2603 0 0 
313 1 43.2434 58.2638 0 0 
315 1 48.0516 58.2625 0 0 
317 1 52.8646 58.2674 0 0 
319 1 57.6734 58.2634 0 0 
321 1 62.4748 58.2639 0 0 
323 1 67.2813 58.259 0 0 
325 1 72.08 58.2689 0 0 
327 1 76.892 58.2713 0 0 
329 1 81.7006 58.2599 0 0 