LAMMPS (20 Nov 2019)
# Use Lennard-Jones units, periodic boundaries and atomic model
units lj
boundary p p p
atom_style atomic


# Define the space and put atoms in
dimension 2
region simbox block 0 20 0 20 -0.1 0.1
create_box 1 simbox
Created orthogonal box = (0 0 -0.1) to (20 20 0.1)
  1 by 1 by 1 MPI processor grid
lattice hex 0.05
Lattice spacing in x,y,z = 4.80562 8.32358 4.80562
create_atoms 1 box
Created 23 atoms
  create_atoms CPU = 0.000257242 secs

# Define properties of the atoms
mass 1 1.0
velocity all create 0.9 87287
pair_style lj/cut 2.5
pair_coeff 1 1 1.0 1.0 2.5

# Speed up simulation with neighbour lists
neighbor 0.3 bin
neigh_modify every 20 delay 0 check yes

# Define thermodynamic ensemble
fix 1 all nvt temp 0.2 0.2 0.2
#fix 1 all nve

# Define trajectory file name and content...
dump 1 all custom 10 dump.lammpstrj id type x y vx vy

# Define thermodynamic data file (log.lammps)
thermo_style custom time pe ke temp press
thermo 10

# run simulation + number of steps
run 5000
Neighbor list info ...
  update every 20 steps, delay 0 steps, check yes
  max neighbors/atom: 2000, page size: 100000
  master list distance cutoff = 2.8
  ghost atom cutoff = 2.8
  binsize = 1.4, bins = 15 15 1
  1 neighbor lists, perpetual/occasional/extra = 1 0 0
  (1) pair lj/cut, perpetual
      attributes: half, newton on
      pair build: half/bin/atomonly/newton
      stencil: half/bin/2d/newton
      bin: standard
Per MPI rank memory allocation (min/avg/max) = 4.299 | 4.299 | 4.299 Mbytes
Time PotEng KinEng Temp Press 
           0    8.3286281   0.86086957          0.9    3.3302673 
        0.05 -0.065636474    3.8119726    3.9852441    0.2098297 
         0.1 -0.016071135    1.3433182    1.4043781  0.074559666 
        0.15 -0.0074447676   0.58530593   0.61191075  0.032389742 
         0.2 -0.0045936235   0.30511157   0.31898027  0.016758619 
        0.25 -0.0032768259   0.18210521   0.19038272 0.0099093938 
         0.3 -0.0025378284   0.12122208   0.12673218 0.0065346455 
        0.35            0   0.08874985  0.092783934 0.0051031164 
         0.4            0  0.071151608  0.074385772 0.0040912174 
        0.45            0  0.062070367  0.064891747 0.0035690461 
         0.5            0  0.058953272  0.061632966 0.0033898131 
        0.55            0  0.061033976  0.063808248 0.0035094536 
         0.6            0  0.068767021  0.071892795 0.0039541037 
        0.65            0  0.083612643  0.087413218  0.004807727 
         0.7            0    0.1077917   0.11269132 0.0061980227 
        0.75            0   0.14365623   0.15018606 0.0082602332 
         0.8            0   0.19228035   0.20102036   0.01105612 
        0.85            0   0.25094591   0.26235254   0.01442939 
         0.9            0   0.31008457   0.32417933  0.017829863 
        0.95            0   0.35272506   0.36875802  0.020281691 
           1            0   0.36148181    0.3779128  0.020785204 
        1.05            0    0.3321665   0.34726497  0.019099574 
         1.1            0   0.27931606   0.29201224  0.016060673 
        1.15            0   0.22358327   0.23374615  0.012856038 
         1.2            0   0.17739285   0.18545616  0.010200089 
        1.25 -0.00073851768   0.14368394   0.15021503  0.008134978 
         1.3 -0.00085616725   0.12102022   0.12652114 0.0068117083 
        1.35 -0.0009858556   0.10707013   0.11193695 0.0059874472 
         1.4 -0.0011319417   0.10015302   0.10470543 0.0055648264 
        1.45 -0.0013013254  0.099419528    0.1039386 0.0054938496 
         1.5 -0.0015047321   0.10480546   0.10956935 0.0057690335 
        1.55 -0.0017589322   0.11688685   0.12219989 0.0064207107 
         1.6  -0.00209048   0.13659129   0.14279998 0.0074978332 
        1.65 -0.0025420006   0.16461632   0.17209887 0.0090335468 
         1.7 -0.0039297863   0.20046264   0.20957458  0.010859706 
        1.75 -0.0049941248   0.24108052   0.25203873  0.013019141 
         1.8 -0.0065851275   0.27968079   0.29239355   0.01497957 
        1.85 -0.0090151121   0.30661608   0.32055317  0.016143067 
         1.9 -0.013498478    0.3132994   0.32754028  0.015834752 
        1.95 -0.020122711   0.29806645   0.31161493   0.01401993 
           2 -0.029645949   0.26806554   0.28025033  0.011204915 
        2.05 -0.042180688   0.23406156   0.24470072 0.0087349891 
         2.1 -0.051385332    0.1986229   0.20765121  0.010508473 
        2.15 -0.028667008   0.14184074   0.14828805  0.025928941 
         2.2 -0.018159072   0.11249596   0.11760942  0.030505699 
        2.25 -0.052228867   0.13321927    0.1392747  0.010264625 
         2.3 -0.053610849   0.12587682   0.13159849 0.0023383176 
        2.35 -0.046999325   0.11632594   0.12161348 0.00053317974 
         2.4 -0.041919527   0.11403977    0.1192234 0.00038309059 
        2.45 -0.039188313   0.12002277   0.12547835 0.00082085444 
         2.5 -0.038590502   0.13470078   0.14082354  0.001617423 
        2.55 -0.040188718   0.15884884   0.16606924 0.0027307454 
         2.6 -0.044572658   0.19299167   0.20176401 0.0041364676 
        2.65 -0.052936425   0.23606344    0.2467936 0.0058538125 
         2.7 -0.066440799   0.28217066    0.2949966 0.0086037857 
        2.75 -0.067857046   0.30412828   0.31795229  0.019721902 
         2.8 -0.013547831   0.25065385   0.26204721   0.04928424 
        2.85 -0.068894565   0.29331748   0.30665009  0.025036087 
         2.9 -0.093943379    0.2864822   0.29950412 0.0068612656 
        2.95  -0.09604926   0.24465832   0.25577915 0.0025440377 
           3 -0.095501373   0.20103954    0.2101777 0.0048529584 
        3.05 -0.071885178    0.1444544   0.15102051  0.018445442 
         3.1 -0.065825409   0.11924136   0.12466143  0.020530765 
        3.15 -0.093807473   0.13382088   0.13990365 0.0035833142 
         3.2  -0.09824451   0.12956085   0.13544998 -0.0040185111 
        3.25 -0.097180469   0.12524601   0.13093901  -0.00623307 
         3.3 -0.099669851   0.12991713   0.13582246 -0.0067850436 
        3.35  -0.10773796   0.14581074    0.1524385 -0.0064426551 
         3.4  -0.12157516   0.17333604   0.18121495 -0.004303496 
        3.45  -0.13279966   0.20288223   0.21210415 0.0046319625 
         3.5  -0.09711647    0.1855759   0.19401117   0.03535151 
        3.55 -0.063660295   0.16804772   0.17568625  0.054388309 
         3.6  -0.13506892    0.2613949   0.27327649   0.01701807 
        3.65  -0.14227073   0.28553735   0.29851632 0.0018464728 
         3.7  -0.13113323   0.27480505   0.28729619 -0.00011155454 
        3.75  -0.12216212   0.25192639   0.26337759  0.002166809 
         3.8  -0.11125251   0.21867948   0.22861945 0.0077791626 
        3.85  -0.10480442   0.19010582   0.19874699  0.010589309 
         3.9  -0.11733434   0.18251537   0.19081152 0.0039709591 
        3.95  -0.13055043   0.17739192   0.18545518 -0.0021940939 
           4  -0.13671984   0.16768564   0.17530771 -0.0017083574 
        4.05   -0.1267789   0.14581856   0.15244668 0.0088730932 
         4.1  -0.11825182   0.13107805   0.13703615  0.018631911 
        4.15  -0.12350498    0.1351988    0.1413442  0.019667493 
         4.2  -0.11201875   0.12760976    0.1334102  0.021572655 
        4.25  -0.13591006   0.16147792   0.16881782 0.0047447278 
         4.3  -0.13615732   0.17710442   0.18515462 -0.0026494144 
        4.35   -0.1265162   0.18536422   0.19378986 -0.0022283783 
         4.4  -0.11932013   0.19755755   0.20653743 0.0005882459 
        4.45  -0.11626123   0.21499607   0.22476862 0.0039300199 
         4.5  -0.11703687   0.23371203    0.2443353 0.0079772254 
        4.55  -0.10061238   0.22985413   0.24030205  0.020275688 
         4.6 -0.062530604   0.19847335   0.20749487  0.036288107 
        4.65 -0.092742052   0.23380198   0.24442935  0.016859809 
         4.7 -0.095600889   0.23581384   0.24653265 0.0050056802 
        4.75 -0.082980419   0.21601471   0.22583356 0.0021151795 
         4.8  -0.07240951    0.1955008    0.2043872 0.0012502181 
        4.85 -0.065732151   0.17913403   0.18727649 0.00078635848 
         4.9 -0.062460641   0.16814045   0.17578319 0.00042463273 
        4.95 -0.062276063   0.16298515   0.17039357 0.0001375071 
           5 -0.065296481   0.16402599   0.17148171 2.8046084e-05 
        5.05 -0.071602056   0.17122179    0.1790046 0.0006229187 
         5.1 -0.077133842    0.1799863   0.18816749 0.0045243498 
        5.15 -0.055757355   0.16339005   0.17081687  0.021109829 
         5.2 -0.030190469   0.14550152   0.15211523  0.033673963 
        5.25 -0.072588928   0.20042439   0.20953459  0.012009367 
         5.3 -0.076080068   0.21925387   0.22921996 0.0045321264 
        5.35 -0.070505114   0.22582198   0.23608661 0.0048186866 
         5.4 -0.066995613   0.22897462   0.23938255 0.0083170236 
        5.45 -0.053640425   0.21762172   0.22751362  0.017865606 
         5.5 -0.032911842   0.19478096   0.20363464  0.028193968 
        5.55 -0.046123091   0.20487999   0.21419271  0.019419468 
         5.6  -0.05331889   0.20710975   0.21652383 0.0096908994 
        5.65 -0.047075964   0.19408165   0.20290354 0.0062274253 
         5.7 -0.040691974     0.179546   0.18770718 0.0049661656 
        5.75 -0.034453297   0.16825911   0.17590725 0.0047100137 
         5.8 -0.030501387   0.16119714   0.16852429  0.004641403 
        5.85  -0.02846476   0.15850068   0.16570526 0.0046459217 
         5.9  -0.02600592   0.16022184   0.16750465 0.0050521884 
        5.95 -0.024200044   0.16606175   0.17361001 0.0056239456 
           6 -0.022915922   0.17566313   0.18364782 0.0063463889 
        6.05 -0.022085401   0.18831071   0.19687029 0.0071813628 
         6.1 -0.021689613   0.20276664    0.2119833 0.0080563174 
        6.15 -0.021752322   0.21721392   0.22708728 0.0088604935 
         6.2 -0.022339246   0.22941064   0.23983839 0.0094533094 
        6.25 -0.023563153   0.23712069    0.2478989 0.0096884429 
         6.3 -0.024895436   0.23878661   0.24964055  0.009572004 
        6.35 -0.028841585   0.23430918   0.24495959 0.0086793367 
         6.4 -0.033514929   0.22494265   0.23516731 0.0074332154 
        6.45  -0.04018295   0.21335255   0.22305039 0.0058359912 
         6.5 -0.049656889   0.20263691   0.21184768  0.004114635 
        6.55 -0.062530371    0.1950328   0.20389793 0.0029130252 
         6.6 -0.074781429   0.18742856   0.19594804 0.0050722181 
        6.65 -0.058640924   0.15420822   0.16121768  0.020663781 
         6.7 -0.039876615   0.12606402    0.1317942   0.03177142 
        6.75 -0.087749805   0.16892676   0.17660525 0.0090787398 
         6.8 -0.098172952   0.17571957   0.18370683 0.0011534374 
        6.85  -0.09333165   0.16972048   0.17743505 0.0042879957 
         6.9 -0.070039288   0.14775461   0.15447072  0.017325904 
        6.95 -0.059512321   0.14238497   0.14885701  0.021681827 
           7 -0.081905212   0.17552034   0.18349854 0.0079332908 
        7.05 -0.084765748   0.19309982   0.20187709 0.0015398058 
         7.1 -0.082123148   0.20603905   0.21540446 0.00038727737 
        7.15 -0.085231623   0.22301413   0.23315113 0.00050840706 
         7.2 -0.095285944   0.24412047   0.25521686 0.0016229351 
        7.25  -0.10633689   0.25860126   0.27035586 0.0075679758 
         7.3 -0.083938395   0.22872439   0.23912096  0.030333526 
        7.35 -0.083761138   0.21571888   0.22552428  0.041507084 
         7.4 -0.032030252   0.15224287     0.159163  0.059293493 
        7.45    -0.121209   0.23021504   0.24067936  0.010802068 
         7.5    -0.120113   0.21234565   0.22199772 -0.0029852007 
        7.55  -0.10877101   0.18352122    0.1918631 -0.0047076281 
         7.6  -0.10539047   0.16563828   0.17316729 -0.0038029884 
        7.65  -0.10099918   0.15072295   0.15757399 0.0018287669 
         7.7 -0.075325732   0.11968289   0.12512303  0.016839593 
        7.75 -0.072819684   0.11785544    0.1232125  0.017611325 
         7.8 -0.096299582   0.14861993   0.15537538 0.0027365673 
        7.85 -0.096566235    0.1621744   0.16954597 -0.0027669749 
         7.9 -0.091965443   0.17502811   0.18298393 -0.0033744056 
        7.95  -0.09088218   0.19415224   0.20297734 -0.0026910109 
           8 -0.095119855   0.21915348     0.229115 -0.0017154072 
        8.05  -0.10501779   0.24686118   0.25808214 -0.00020512079 
         8.1  -0.11398828   0.26571497   0.27779292 0.0053639454 
        8.15 -0.084872626   0.23554952   0.24625632  0.026931986 
         8.2 -0.090897218   0.23294219   0.24353047  0.027437143 
        8.25  -0.14036087   0.26546967   0.27753647  0.003459915 
         8.3  -0.15544472    0.2487839   0.26009226 -0.0040001277 
        8.35  -0.16444489   0.22261618    0.2327351 -0.0024570594 
         8.4  -0.15300189   0.18234898   0.19063757  0.011963132 
        8.45  -0.14205966   0.15459942   0.16162666  0.024063905 
         8.5  -0.14964696    0.1528529   0.15980075  0.021275608 
        8.55  -0.15701704   0.15609378   0.16318895  0.010860297 
         8.6  -0.16711394   0.16568096   0.17321191 -0.0037395544 
        8.65   -0.1588876   0.15913996    0.1663736 -0.0086464968 
         8.7  -0.14778604   0.15379598   0.16078671 -0.0089699791 
        8.75  -0.14063182   0.15606155   0.16315525 -0.0081008512 
         8.8  -0.13625293   0.16714195   0.17473932 -0.0067492326 
        8.85  -0.13585462   0.18672726   0.19521486 -0.0054552835 
         8.9  -0.13789157   0.21198891   0.22162477 -0.0038543576 
        8.95  -0.14070258   0.23512364   0.24581107 -0.00066476003 
           9  -0.13003857   0.23660849   0.24736342 0.0095382678 
        9.05 -0.098282376    0.2088485   0.21834162  0.024726095 
         9.1  -0.11783642    0.2284485   0.23883252  0.012150765 
        9.15  -0.12639508   0.23219531   0.24274964 -6.1007411e-05 
         9.2  -0.11871988    0.2152294   0.22501255 -0.0036853874 
        9.25  -0.11258414   0.19878023   0.20781569 -0.0048260941 
         9.3   -0.1108597   0.18884377   0.19742758 -0.0052182948 
        9.35   -0.1153528   0.18668829   0.19517412 -0.0053052941 
         9.4  -0.12561641   0.19165763   0.20036934 -0.0043747676 
        9.45  -0.13627006   0.19891487   0.20795646 0.00029968098 
         9.5  -0.13790205   0.19756545   0.20654569  0.012540782 
        9.55  -0.11293648    0.1702557    0.1779946  0.035874333 
         9.6 -0.084789285   0.14322264   0.14973276  0.048077423 
        9.65   -0.1664671   0.22929639   0.23971896 0.0060067202 
         9.7  -0.15024117   0.21339123   0.22309083 0.0049748531 
        9.75  -0.10414663   0.16606391   0.17361227  0.019755824 
         9.8  -0.10650484   0.16957988   0.17728806  0.012117424 
        9.85  -0.11423471   0.18036367   0.18856202 -0.00041451053 
         9.9  -0.10437819   0.17516447   0.18312649 -0.0037965196 
        9.95 -0.094340716   0.17201588   0.17983478 -0.0039703203 
          10 -0.088028591   0.17614059   0.18414698 -0.0033012392 
       10.05 -0.085397507   0.18902865   0.19762086 -0.0023149651 
        10.1 -0.086209952   0.21170228   0.22132511   -0.0010891 
       10.15 -0.090680401   0.24352105   0.25459019 0.00030560498 
        10.2 -0.099493982   0.27972016   0.29243471 0.0016367758 
       10.25  -0.11417151   0.31116927   0.32531333 0.0025696778 
        10.3  -0.13201913   0.32512658   0.33990506 0.0039994468 
       10.35  -0.14740401   0.30195344    0.3156786 0.0082465319 
        10.4  -0.14931807   0.23936071   0.25024074  0.017663605 
       10.45  -0.14957056     0.193685   0.20248886  0.025108972 
        10.5  -0.14546656   0.16907657   0.17676187  0.030375204 
       10.55  -0.14185535   0.15789714   0.16507428  0.031056257 
        10.6  -0.14921916   0.16312472   0.17053948  0.023331996 
       10.65   -0.1775474   0.19212988   0.20086305 0.0048929669 
        10.7  -0.18488124   0.20038489   0.20949329 -0.0041726249 
       10.75  -0.18618682   0.20149587   0.21065477 -0.0071246096 
        10.8    -0.188645    0.2016299   0.21079489 -0.0063584657 
       10.85  -0.18537308   0.19597123   0.20487901 -0.00030913302 
        10.9  -0.18445445   0.19043126   0.19908723 0.0061775378 
       10.95  -0.20920302   0.21024924   0.21980603 0.0032772166 
          11  -0.21022556   0.20269437   0.21190775  0.014063312 
       11.05  -0.16152693   0.14570393   0.15232684  0.044629919 
        11.1  -0.19676104   0.17543054   0.18340466  0.036276028 
       11.15  -0.20637151   0.18098044   0.18920683   0.03081119 
        11.2  -0.19746781   0.16804142   0.17567966  0.028156054 
       11.25  -0.20285709   0.17110832   0.17888597  0.015560228 
        11.3  -0.20084416   0.16876403   0.17643513 0.0041269156 
       11.35  -0.18962844   0.16068225   0.16798599 -0.0022398816 
        11.4  -0.18099672   0.15885059   0.16607107 -0.0066408702 
       11.45    -0.176016   0.16701678   0.17460846 -0.0087263321 
        11.5  -0.17307538   0.18562555   0.19406308 -0.0064724961 
       11.55  -0.14698797   0.18536823   0.19379406  0.010832218 
        11.6 -0.085604047   0.14619016   0.15283517  0.037614776 
       11.65  -0.14976871   0.23533745    0.2460346 0.0059340241 
        11.7  -0.15166797   0.25677245   0.26844392 -0.0031983966 
       11.75  -0.14460807   0.25538843   0.26699699 -0.0033125883 
        11.8  -0.14578964    0.2514467   0.26287609 -0.0022376906 
       11.85  -0.15422726   0.24567657   0.25684369 -0.00021638573 
        11.9    -0.163249   0.23497601   0.24565674 0.0047308346 
       11.95  -0.16650248   0.21598237   0.22579975  0.014108272 
          12  -0.16371905   0.19405858   0.20287942  0.024989942 
       12.05  -0.15899922   0.17490054   0.18285057   0.03208792 
        12.1  -0.17723245   0.18334023   0.19167388  0.023477605 
       12.15  -0.19286926   0.19140608   0.20010636  0.012884234 
        12.2  -0.16163091   0.15580781   0.16288998  0.019854801 
       12.25  -0.17466895   0.16840078   0.17605536 0.0067389865 
        12.3  -0.18689143   0.18276155   0.19106889 -0.0063416038 
       12.35  -0.18456999   0.18346631   0.19180569 -0.0083190656 
        12.4  -0.17686307    0.1801336   0.18832149 -0.0019326704 
       12.45  -0.14904853      0.15706   0.16419909  0.015309555 
        12.5  -0.14937523   0.16495032   0.17244807  0.017649756 
       12.55  -0.16960404   0.19837914   0.20739637 0.0074985991 
        12.6  -0.16516882   0.20866406    0.2181488 0.0075681296 
       12.65  -0.15483342   0.21307861     0.222764  0.011639208 
        12.7  -0.14124577   0.21703717   0.22690249   0.01603302 
       12.75  -0.14222033   0.24227759   0.25329021  0.012194106 
        12.8  -0.14900273   0.28650599   0.29952899 0.0051425061 
       12.85  -0.14974798   0.33324329   0.34839071  0.002569175 
        12.9  -0.15157931   0.36852399   0.38527508 0.0024391716 
       12.95  -0.16120816   0.37397222   0.39097096 0.0022660438 
          13  -0.17090462   0.33261899   0.34773804 0.0052548092 
       13.05  -0.15040753   0.24503594   0.25617393  0.021903375 
        13.1  -0.15331593   0.20867261   0.21815773    0.0263528 
       13.15  -0.17329395   0.20573768    0.2150894  0.018999948 
        13.2  -0.18037024   0.19851034   0.20753354   0.01362154 
       13.25  -0.19441527   0.19977369   0.20885432  0.005378413 
        13.3  -0.19769408   0.19024775   0.19889537 0.0042081803 
       13.35  -0.18195672   0.16345483    0.1708846  0.013480367 
        13.4  -0.16157779   0.13750956      0.14376  0.021937478 
       13.45  -0.19537307    0.1700583   0.17778822 0.0048641262 
        13.5  -0.19551502   0.17237276   0.18020789  0.001305956 
       13.55  -0.18100346   0.16169176   0.16904139 0.0060734376 
        13.6  -0.19043004   0.17935786   0.18751049 0.0015548247 
       13.65  -0.20611048   0.20646979   0.21585478 -0.0030609244 
        13.7  -0.20318637   0.21513964   0.22491871  0.005584846 
       13.75  -0.16588843   0.18773268   0.19626598  0.029895991 
        13.8  -0.16477466   0.19780311   0.20679416  0.033406334 
       13.85  -0.18457839   0.23140262   0.24192092   0.01988855 
        13.9  -0.19106315   0.24911835   0.26044191 0.0088969456 
       13.95  -0.18370425    0.2466537   0.25786524 0.0046413814 
          14   -0.1783977   0.23746807   0.24826207 0.0020572387 
       14.05  -0.16825142   0.21436812   0.22411212 0.0037506998 
        14.1  -0.15048065   0.17772197   0.18580024 0.0088278293 
       14.15  -0.14878463   0.15663127   0.16375087 0.0052753179 
        14.2   -0.1568174   0.14723351   0.15392594 -0.0037835281 
       14.25  -0.15880695   0.13594529   0.14212462 -0.0090642551 
        14.3  -0.16017868   0.12925271   0.13512784   -0.0110936 
       14.35   -0.1658133    0.1311729   0.13713531 -0.011378726 
        14.4  -0.17434036   0.14255688   0.14903674 -0.0095444722 
       14.45  -0.18563856   0.16224594   0.16962075 -0.0044015955 
        14.5   -0.1908994   0.18404659   0.19241234 0.0077854798 
       14.55  -0.17208949   0.19122727   0.19991942   0.03171236 
        14.6  -0.12257462    0.1702929   0.17803348  0.059115355 
       14.65  -0.20861197   0.29205021   0.30532522  0.018967769 
        14.7    -0.233874   0.34070509   0.35619168 -0.00047158676 
       14.75  -0.22293741   0.32049533    0.3350633 0.0048646946 
        14.8  -0.16542812   0.23909188    0.2499597  0.033926526 
       14.85  -0.19524768    0.2482022   0.25948412   0.02535542 
        14.9  -0.20698014   0.23914399   0.25001417  0.019752109 
       14.95  -0.19041239   0.20491737    0.2142318  0.024888208 
          15  -0.19470684   0.19536095     0.204241  0.019623471 
       15.05  -0.18468121   0.17497789   0.18293143  0.017581861 
        15.1  -0.18182619   0.16637203    0.1739344  0.011006231 
       15.15  -0.17890656   0.16029971   0.16758606 0.0040360965 
        15.2  -0.16750072   0.14846731   0.15521583 0.0014212584 
       15.25  -0.15937318    0.1447431   0.15132233 -0.001819959 
        15.3   -0.1541062   0.14894298   0.15571312 -0.0051630067 
       15.35  -0.14883848   0.15909977   0.16633158 -0.0066430949 
        15.4  -0.14481613   0.17634882   0.18436468 -0.0062293432 
       15.45  -0.14325593   0.19902122   0.20806764 -0.0043118655 
        15.5  -0.14294081   0.22012302   0.23012861 -0.00072748658 
       15.55  -0.14020957    0.2310474   0.24154955 0.0049953129 
        15.6  -0.13773983   0.23361218   0.24423091 0.0098100891 
       15.65   -0.1482495     0.241383   0.25235495 0.0075303382 
        15.7  -0.16196824   0.24653619   0.25774238 0.0030950442 
       15.75   -0.1687907   0.23915551   0.25002621 0.0032768906 
        15.8  -0.16290746   0.21671952    0.2265704  0.010774687 
       15.85  -0.14715842   0.18696347   0.19546181  0.020863019 
        15.9  -0.15485478   0.18502952   0.19343995   0.01638241 
       15.95  -0.17271793   0.19561845   0.20451019 0.0037280927 
          16  -0.18127716   0.19768851   0.20667435 -0.0045315032 
       16.05  -0.18743563   0.19764508   0.20662895 -0.0078708887 
        16.1  -0.19375401   0.19706213    0.2060195 -0.0057990038 
       16.15  -0.17798216   0.17548901   0.18346579 0.0088271955 
        16.2  -0.16587958   0.16051613   0.16781232  0.019144269 
       16.25  -0.20772359   0.20201921    0.2112019 0.0033509977 
        16.3  -0.21609569   0.20978926   0.21932513 0.0013014889 
       16.35  -0.21222211   0.20183573   0.21101009 0.0081227175 
        16.4   -0.1935569   0.17677564    0.1848109  0.021148882 
       16.45  -0.18961254   0.16569619   0.17322783  0.022832917 
        16.5  -0.21275937   0.17852935   0.18664432 0.0080174019 
       16.55  -0.21219149   0.16220439   0.16957732 0.0019329301 
        16.6   -0.2022597   0.13484325   0.14097248 0.0015632628 
       16.65  -0.19122976   0.11200177   0.11709276 0.0017154546 
        16.7  -0.19401667   0.10899056   0.11394467 -0.0045807186 
       16.75  -0.19834579   0.11386344   0.11903905 -0.011328014 
        16.8  -0.20049138   0.12210627   0.12765656 -0.014476257 
       16.85  -0.20513843   0.13958967   0.14593466 -0.014715675 
        16.9    -0.212877   0.16869372   0.17636162  -0.01213831 
       16.95  -0.22239497   0.20375934   0.21302113 -0.0061488293 
          17   -0.2334487   0.23654291   0.24729486 0.0022459249 
       17.05  -0.25158738   0.26788972   0.28006653 0.0087543653 
        17.1  -0.26412066   0.27985684   0.29257761   0.01735762 
       17.15  -0.27249717   0.27287293   0.28527625  0.027078283 
        17.2  -0.23333877   0.20922637   0.21873666  0.053866228 
       17.25  -0.22012163    0.1786191   0.18673816  0.060983625 
        17.3  -0.29662357   0.23826864   0.24909903  0.019544599 
       17.35  -0.31710803   0.23735161   0.24814032 -0.0026118386 
        17.4  -0.31337971   0.21228744   0.22193687 -0.0095090039 
       17.45  -0.30598343   0.18868112   0.19725754 -0.0098046276 
        17.5  -0.31512971   0.18775836   0.19629283 -0.013309756 
       17.55  -0.33642457   0.20107979   0.21021978 -0.016975356 
        17.6  -0.35266142   0.20961599   0.21914399  -0.01133729 
       17.65  -0.33831314   0.18656993   0.19505038  0.012681555 
        17.7    -0.299616   0.14319969   0.14970876  0.041743759 
       17.75  -0.31512058   0.15876083   0.16597723  0.036359605 
        17.8  -0.33470878   0.18193381   0.19020353  0.020189658 
       17.85  -0.29462226   0.14710197   0.15378843  0.025691898 
        17.9  -0.29628361   0.15707947   0.16421945  0.012904408 
       17.95  -0.31295158   0.18970922   0.19833236 -0.0066834557 
          18  -0.29725371   0.19353248   0.20232941 -0.0095681191 
       18.05  -0.28875064   0.20689031   0.21629442  -0.01114501 
        18.1  -0.27894999   0.21965003   0.22963412 -0.0086814351 
       18.15  -0.26850471   0.22909067   0.23950389 -0.003421569 
        18.2  -0.27456705   0.24999311   0.26135643 -0.0033835284 
       18.25  -0.28603298   0.26836545   0.28056388 -0.0033755077 
        18.3  -0.28110253   0.25673502   0.26840479 0.0062833158 
       18.35  -0.27656288   0.23195268   0.24249599  0.015269626 
        18.4  -0.29577912   0.21431273   0.22405422  0.010946308 
       18.45  -0.30128551   0.16880419   0.17647711 0.0087080586 
        18.5  -0.30002164   0.13329626   0.13935518 0.0083555228 
       18.55  -0.30150814    0.1237315   0.12935566 0.0062613374 
        18.6  -0.30539763   0.12657727   0.13233078 0.0024413216 
       18.65  -0.31385949   0.13978389   0.14613771 -0.0020636069 
        18.7  -0.30240087   0.13649969   0.14270422 0.0038638602 
       18.75  -0.31455341   0.16149295   0.16883354 0.0028462022 
        18.8  -0.30638437   0.17155623   0.17935425  0.011514097 
       18.85  -0.30968217   0.19408924   0.20291147  0.016691822 
        18.9  -0.30268668   0.20674617   0.21614372  0.023528521 
       18.95  -0.31206473   0.23283417   0.24341755  0.019728575 
          19  -0.32039713    0.2525001   0.26397738  0.013261951 
       19.05  -0.30117003   0.23598723   0.24671392  0.016527394 
        19.1  -0.29163549   0.22141546    0.2314798  0.013613085 
       19.15  -0.29175508   0.21172467   0.22134852 0.0039808906 
        19.2  -0.28702207   0.19397131   0.20278819 -0.0040880761 
       19.25   -0.2817229   0.17572613   0.18371368 -0.010246675 
        19.3  -0.28170697   0.16337754   0.17080379 -0.015060409 
       19.35  -0.28085046   0.15251079    0.1594431 -0.014947183 
        19.4  -0.26205551   0.12728864   0.13307449 -0.0040519279 
       19.45  -0.24751922   0.11173029   0.11680894 0.0033462627 
        19.5  -0.27548904    0.1456844   0.15230642 -0.0097281083 
       19.55  -0.28475081   0.17065471   0.17841174 -0.014137346 
        19.6  -0.28539164   0.19962885   0.20870289 -0.010027354 
       19.65  -0.28826818   0.23861519   0.24946134 -0.0014728888 
        19.7   -0.2799249   0.26048574     0.272326  0.014771066 
       19.75  -0.27107607   0.26639248   0.27850123   0.02967376 
        19.8  -0.27249472   0.26793481   0.28011366  0.034330862 
       19.85  -0.27679408    0.2604815   0.27232157  0.029921423 
        19.9  -0.28866045   0.25238411   0.26385611  0.016520138 
       19.95  -0.29175574   0.23201099   0.24255695  0.004932123 
          20  -0.29080216   0.21039997    0.2199636 -0.0032217679 
       20.05  -0.28888669   0.19336744   0.20215687 -0.0074123405 
        20.1  -0.27328509   0.16853798    0.1761988 -0.002747433 
       20.15    -0.261419   0.15300927   0.15996423 0.00076486626 
        20.2   -0.2693124   0.16141967   0.16875693 -0.005141216 
       20.25  -0.27361762   0.16922133   0.17691321 -0.0096303707 
        20.3  -0.28017666   0.18073081   0.18894585 -0.012623994 
       20.35  -0.29208538   0.19895375    0.2079971 -0.013944272 
        20.4  -0.30298906   0.21647104   0.22631063 -0.0096558156 
       20.45  -0.30111092   0.21839562    0.2283227 0.0048309966 
        20.5  -0.29075509     0.207691    0.2171315  0.023331408 
       20.55    -0.300068   0.21443833   0.22418553  0.028851057 
        20.6  -0.31562573   0.22256845   0.23268519  0.023731262 
       20.65  -0.35693032   0.24482462   0.25595301 0.0032665102 
        20.7  -0.37065958    0.2211729   0.23122621 -0.0047886308 
       20.75  -0.34659354   0.15736087   0.16451363 0.0058668405 
        20.8  -0.33965746   0.12791413   0.13372841 0.0077661676 
       20.85  -0.35310955   0.13201796   0.13801878 -0.0020876221 
        20.9   -0.3541193   0.13078772   0.13673262 -0.0056257551 
       20.95  -0.35344182   0.13300794   0.13905376 -0.0041468778 
          21  -0.33646659   0.12324827   0.12885047 0.0076270667 
       21.05  -0.35464667   0.15361892    0.1606016 0.0085087675 
        21.1  -0.36437549   0.18207394   0.19035003  0.016224477 
       21.15   -0.3300289   0.16414379   0.17160487  0.042110388 
        21.2  -0.31943086   0.16891493   0.17659288  0.049198626 
       21.25  -0.34177041   0.20744103   0.21687017  0.031443265 
        21.3  -0.34018583   0.21830774   0.22823081  0.015738378 
       21.35  -0.35374331   0.23864105   0.24948837 -0.0066147185 
        21.4  -0.33989092    0.2236956   0.23386358 -0.013153134 
       21.45  -0.32159324   0.20093218   0.21006546 -0.011510618 
        21.5  -0.30916494   0.18357995   0.19192449 -0.0077590156 
       21.55  -0.30711808   0.17786327   0.18594797 -0.0056269808 
        21.6   -0.3134119   0.18121321   0.18945017 -0.0044066584 
       21.65  -0.30953735   0.17622098   0.18423103 0.0030478832 
        21.7  -0.29505227   0.16249975   0.16988611  0.013921974 
       21.75  -0.31056592   0.18257673   0.19087567  0.009190617 
        21.8  -0.31403771   0.19648515   0.20541629 0.0067010909 
       21.85  -0.30567367   0.20587036    0.2152281  0.008109008 
        21.9  -0.31028681   0.23902377   0.24988849 0.0025311799 
       21.95  -0.32141894   0.28251424    0.2953558 -0.0058393888 
          22  -0.32870398   0.31243438   0.32663594 -0.010262819 
       22.05   -0.3375214   0.32109814   0.33569351 -0.010946424 
        22.1  -0.34869613   0.30486849   0.31872615 -0.0079797767 
       22.15  -0.35224149   0.26235334   0.27427849 0.0015389719 
        22.2  -0.33747301    0.2073519   0.21677699  0.017634833 
       22.25  -0.36156958   0.20526382   0.21459399  0.013604537 
        22.3  -0.40441238    0.2290008   0.23940992 -0.00067517856 
       22.35  -0.41211715   0.21728768   0.22716439 0.0030968166 
        22.4  -0.39709011   0.18650917   0.19498686  0.017603759 
       22.45   -0.4116723   0.18913861   0.19773581  0.015872866 
        22.5  -0.42119658   0.18703864    0.1955404   0.01108026 
       22.55  -0.41555997   0.17269814   0.18054806 0.0085737309 
        22.6  -0.43794769   0.18725979    0.1957716 -0.0062522857 
       22.65  -0.44114467   0.18366671    0.1920152 -0.011068318 
        22.7  -0.42957139   0.16615219   0.17370456 -0.0052230376 
       22.75  -0.39480955   0.12853111   0.13437343   0.01144304 
        22.8  -0.38506324   0.12050567    0.1259832  0.015383342 
       22.85  -0.40760269   0.15350113   0.16047846 0.0047275423 
        22.9  -0.40777746   0.17402539   0.18193563 0.0045362271 
       22.95  -0.39632307   0.18999704   0.19863326 0.0086539233 
          23  -0.41617093   0.23995934   0.25086658 -0.0022777369 
       23.05  -0.42667596   0.27191804   0.28427795 -0.0098022729 
        23.1  -0.42043785   0.27192438   0.28428458 -0.0079033197 
       23.15   -0.4089775   0.25280574   0.26429691 -0.0026939995 
        23.2  -0.42793243   0.25652471   0.26818492 -0.010749324 
       23.25  -0.44642115    0.2522708   0.26373766 -0.016959641 
        23.3  -0.45409383   0.23658667   0.24734061 -0.014422422 
       23.35  -0.46343993   0.22473471   0.23494993 -0.008117897 
        23.4  -0.46850391   0.21203904   0.22167717 0.0028758285 
       23.45  -0.44956843   0.17800663   0.18609784  0.023401238 
        23.5  -0.44671393   0.16812313   0.17576509   0.03025238 
       23.55  -0.48353814   0.20091328    0.2100457  0.011456721 
        23.6  -0.53128774   0.24272483   0.25375777 -0.014981547 
       23.65  -0.55304366   0.25054384   0.26193219  -0.02345748 
        23.7  -0.52167151   0.19826958   0.20728184 0.00055128122 
       23.75  -0.48294386   0.14552014   0.15213469  0.027905524 
        23.8  -0.55170885   0.20336681   0.21261076 0.0061719512 
       23.85  -0.58464369   0.22324349   0.23339092 -0.0039516659 
        23.9  -0.57703199   0.19909451   0.20814427 0.0058082318 
       23.95  -0.57038765      0.17833   0.18643591  0.016826064 
          24  -0.56681283   0.16456755    0.1720479  0.023459547 
       24.05  -0.61770708   0.20847084   0.21794678 0.0040740278 
        24.1  -0.65906762   0.23871093   0.24956142 -0.0087398293 
       24.15  -0.62523598   0.18983109   0.19845978  0.016690141 
        24.2  -0.58492972   0.14071264   0.14710867  0.041029518 
       24.25   -0.6726988   0.22408651   0.23427226 0.0017653611 
        24.3  -0.68762991    0.2315643   0.24208995 -0.0081038453 
       24.35  -0.63029599   0.16685986   0.17444439  0.019450594 
        24.4  -0.59659317   0.13192702    0.1379237  0.032531688 
       24.45  -0.63732185   0.17587463   0.18386893 0.0038754256 
        24.5  -0.66523739   0.20816439   0.21762641 -0.021858398 
       24.55  -0.65466341   0.19953865   0.20860859 -0.022318266 
        24.6  -0.63348581   0.17906848   0.18720796 -0.0075052748 
       24.65  -0.61721953   0.16466034    0.1721449  0.010056529 
        24.7  -0.58248866   0.13439922   0.14050828  0.030986936 
       24.75  -0.56385126   0.12480503   0.13047799  0.034761735 
        24.8  -0.60039263    0.1797818    0.1879537 0.0089049182 
       24.85  -0.60280606   0.20560395   0.21494959 -0.0051039058 
        24.9  -0.59358794   0.21830663   0.22822966 -0.011058829 
       24.95  -0.56258118   0.20210116   0.21128758 -0.0037096956 
          25  -0.54521855   0.19542374   0.20430663 -0.00013939783 
Loop time of 0.0492093 on 1 procs for 5000 steps with 23 atoms

Performance: 43894100.038 tau/day, 101606.713 timesteps/s
99.9% CPU use with 1 MPI tasks x no OpenMP threads

MPI task timing breakdown:
Section |  min time  |  avg time  |  max time  |%varavg| %total
---------------------------------------------------------------
Pair    | 0.0026509  | 0.0026509  | 0.0026509  |   0.0 |  5.39
Neigh   | 0.00060572 | 0.00060572 | 0.00060572 |   0.0 |  1.23
Comm    | 0.0011914  | 0.0011914  | 0.0011914  |   0.0 |  2.42
Output  | 0.038391   | 0.038391   | 0.038391   |   0.0 | 78.02
Modify  | 0.005136   | 0.005136   | 0.005136   |   0.0 | 10.44
Other   |            | 0.001235   |            |       |  2.51

Nlocal:    23 ave 23 max 23 min
Histogram: 1 0 0 0 0 0 0 0 0 0
Nghost:    11 ave 11 max 11 min
Histogram: 1 0 0 0 0 0 0 0 0 0
Neighs:    30 ave 30 max 30 min
Histogram: 1 0 0 0 0 0 0 0 0 0

Total # of neighbors = 30
Ave neighs/atom = 1.30435
Neighbor list builds = 146
Dangerous builds = 44
Total wall time: 0:00:00
